
     Program PWSCF v.6.4.1 starts on 19Mar2020 at  4: 7:48 

     This program is part of the open-source Quantum ESPRESSO suite
     for quantum simulation of materials; please cite
         "P. Giannozzi et al., J. Phys.:Condens. Matter 21 395502 (2009);
         "P. Giannozzi et al., J. Phys.:Condens. Matter 29 465901 (2017);
          URL http://www.quantum-espresso.org", 
     in publications or presentations arising from this work. More details at
     http://www.quantum-espresso.org/quote

     Parallel version (MPI), running on     1 processors

     MPI processes distributed on     1 nodes
     Reading input from wd/configs/1/config_0002.in
Warning: card &IONS ignored
Warning: card ION_DYNAMICS = 'BFGS', ignored
Warning: card / ignored
Warning: card &CELL ignored
Warning: card CELL_DYNAMICS = 'BFGS', ignored
Warning: card CELL_FACTOR = 2.0, ignored
Warning: card PRESS = 0.0, ignored
Warning: card / ignored

     Current dimensions of program PWSCF are:
     Max number of different atomic species (ntypx) = 10
     Max number of k-points (npk) =  40000
     Max angular momentum in pseudopotentials (lmaxx) =  3
               file Al.pbe-nl-kjpaw_psl.1.0.0.UPF: wavefunction(s)  3S 3P renormalized

     Subspace diagonalization in iterative solution of the eigenvalue problem:
     a serial algorithm will be used


     G-vector sticks info
     --------------------
     sticks:   dense  smooth     PW     G-vecs:    dense   smooth      PW
     Sum         593     465    145                10635     7497    1365



     bravais-lattice index     =            0
     lattice parameter (alat)  =       7.6336  a.u.
     unit-cell volume          =     444.8310 (a.u.)^3
     number of atoms/cell      =            4
     number of atomic types    =            1
     number of electrons       =        12.00
     number of Kohn-Sham states=           10
     kinetic-energy cutoff     =      25.0000  Ry
     charge density cutoff     =     126.0000  Ry
     convergence threshold     =      1.0E-06
     mixing beta               =       0.1000
     number of iterations used =           10  TF        mixing
     Exchange-correlation      = SLA PW PBX PBC ( 1  4  3  4 0 0)

     celldm(1)=   7.633640  celldm(2)=   0.000000  celldm(3)=   0.000000
     celldm(4)=   0.000000  celldm(5)=   0.000000  celldm(6)=   0.000000

     crystal axes: (cart. coord. in units of alat)
               a(1) = (   1.000000   0.000000   0.000000 )  
               a(2) = (   0.000000   1.000000   0.000000 )  
               a(3) = (   0.000000   0.000000   1.000000 )  

     reciprocal axes: (cart. coord. in units 2 pi/alat)
               b(1) = (  1.000000  0.000000  0.000000 )  
               b(2) = (  0.000000  1.000000  0.000000 )  
               b(3) = (  0.000000  0.000000  1.000000 )  


     PseudoPot. # 1 for Al read from file:
     /opt/pp/Al.pbe-nl-kjpaw_psl.1.0.0.UPF
     MD5 check sum: 1b67f78b73fe58c7924490f171ce8a1e
     Pseudo is Projector augmented-wave + core cor, Zval =  3.0
     Generated using "atomic" code by A. Dal Corso v.6.3
     Shape of augmentation charge: PSQ
     Using radial grid of 1135 points,  4 beta functions with: 
                l(1) =   0
                l(2) =   0
                l(3) =   1
                l(4) =   1
     Q(r) pseudized with 0 coefficients 


     atomic species   valence    mass     pseudopotential
        Al             3.00    26.98200     Al( 1.00)

     No symmetry found



   Cartesian axes

     site n.     atom                  positions (alat units)
         1           Al  tau(   1) = (  -0.0014407  -0.0012719  -0.0010378  )
         2           Al  tau(   2) = (   0.4990085   0.4979299  -0.0010286  )
         3           Al  tau(   3) = (   0.4983185  -0.0011880   0.4998723  )
         4           Al  tau(   4) = (  -0.0013900   0.4995651   0.4994250  )

     number of k points=    14  Marzari-Vanderbilt smearing, width (Ry)=  0.0200
                       cart. coord. in units 2pi/alat
        k(    1) = (   0.1666667   0.1666667   0.1666667), wk =   0.1481481
        k(    2) = (   0.1666667   0.1666667  -0.5000000), wk =   0.1481481
        k(    3) = (   0.1666667  -0.5000000  -0.5000000), wk =   0.1481481
        k(    4) = (  -0.5000000  -0.5000000  -0.5000000), wk =   0.0740741
        k(    5) = (  -0.1666667  -0.1666667   0.1666667), wk =   0.1481481
        k(    6) = (  -0.1666667   0.1666667  -0.1666667), wk =   0.1481481
        k(    7) = (   0.1666667  -0.1666667  -0.1666667), wk =   0.1481481
        k(    8) = (  -0.1666667   0.1666667   0.5000000), wk =   0.1481481
        k(    9) = (  -0.5000000  -0.1666667   0.1666667), wk =   0.1481481
        k(   10) = (   0.5000000  -0.1666667  -0.1666667), wk =   0.1481481
        k(   11) = (  -0.1666667  -0.5000000   0.1666667), wk =   0.1481481
        k(   12) = (  -0.1666667   0.5000000  -0.1666667), wk =   0.1481481
        k(   13) = (  -0.5000000   0.1666667   0.5000000), wk =   0.1481481
        k(   14) = (  -0.5000000   0.5000000   0.1666667), wk =   0.1481481

     Dense  grid:    10635 G-vectors     FFT dimensions: (  27,  27,  27)

     Smooth grid:     7497 G-vectors     FFT dimensions: (  25,  25,  25)

     Estimated max dynamical RAM per process >      18.00 MB

     Initial potential from superposition of free atoms

     starting charge   11.99084, renormalised to   12.00000
     Starting wfcs are   16 randomized atomic wfcs
     Checking if some PAW data can be deallocated... 

     total cpu time spent up to now is        0.6 secs

     Self-consistent Calculation

     iteration #  1     ecut=    25.00 Ry     beta= 0.10
     Davidson diagonalization with overlap
     ethr =  1.00E-02,  avg # of iterations =  2.9

     Threshold (ethr) on eigenvalues was too large:
     Diagonalizing with lowered threshold

     Davidson diagonalization with overlap
     ethr =  1.89E-04,  avg # of iterations =  2.2

     total cpu time spent up to now is        1.0 secs

     total energy              =    -158.05028717 Ry
     Harris-Foulkes estimate   =    -158.05103489 Ry
     estimated scf accuracy    <       0.02190095 Ry

     iteration #  2     ecut=    25.00 Ry     beta= 0.10
     Davidson diagonalization with overlap
     ethr =  1.83E-04,  avg # of iterations =  1.0

     total cpu time spent up to now is        1.3 secs

     total energy              =    -158.04478813 Ry
     Harris-Foulkes estimate   =    -158.05042551 Ry
     estimated scf accuracy    <       0.01889723 Ry

     iteration #  3     ecut=    25.00 Ry     beta= 0.10
     Davidson diagonalization with overlap
     ethr =  1.57E-04,  avg # of iterations =  1.0

     total cpu time spent up to now is        1.5 secs

     total energy              =    -158.04505435 Ry
     Harris-Foulkes estimate   =    -158.04509950 Ry
     estimated scf accuracy    <       0.00009259 Ry

     iteration #  4     ecut=    25.00 Ry     beta= 0.10
     Davidson diagonalization with overlap
     ethr =  7.72E-07,  avg # of iterations =  5.8

     total cpu time spent up to now is        1.9 secs

     total energy              =    -158.04509505 Ry
     Harris-Foulkes estimate   =    -158.04511396 Ry
     estimated scf accuracy    <       0.00005478 Ry

     iteration #  5     ecut=    25.00 Ry     beta= 0.10
     Davidson diagonalization with overlap
     ethr =  4.56E-07,  avg # of iterations =  1.1

     total cpu time spent up to now is        2.1 secs

     total energy              =    -158.04506298 Ry
     Harris-Foulkes estimate   =    -158.04509744 Ry
     estimated scf accuracy    <       0.00004191 Ry

     iteration #  6     ecut=    25.00 Ry     beta= 0.10
     Davidson diagonalization with overlap
     ethr =  3.49E-07,  avg # of iterations =  2.0

     total cpu time spent up to now is        2.4 secs

     total energy              =    -158.04507005 Ry
     Harris-Foulkes estimate   =    -158.04507042 Ry
     estimated scf accuracy    <       0.00000107 Ry

     iteration #  7     ecut=    25.00 Ry     beta= 0.10
     Davidson diagonalization with overlap
     ethr =  8.93E-09,  avg # of iterations =  1.6

     total cpu time spent up to now is        2.7 secs

     End of self-consistent calculation

          k = 0.1667 0.1667 0.1667 (   943 PWs)   bands (ev):

    -2.4738   3.3939   3.3988   3.4037   8.9454   8.9548   8.9640   9.4324
     9.4341   9.4357

          k = 0.1667 0.1667-0.5000 (   926 PWs)   bands (ev):

    -0.4899  -0.4734   5.1780   5.1785   5.4536   5.4543  10.9218  10.9295
    10.9299  10.9407

          k = 0.1667-0.5000-0.5000 (   944 PWs)   bands (ev):

     1.4741   1.4755   1.4912   1.4929   7.2094   7.2110   7.2276   7.2295
    13.0417  13.0450

          k =-0.5000-0.5000-0.5000 (   968 PWs)   bands (ev):

     3.3173   3.3174   3.3178   3.3179   3.5404   3.5411   3.5412   3.5417
    19.3338  19.3339

          k =-0.1667-0.1667 0.1667 (   943 PWs)   bands (ev):

    -2.4738   3.3949   3.3988   3.4027   8.9474   8.9548   8.9621   9.4327
     9.4341   9.4354

          k =-0.1667 0.1667-0.1667 (   943 PWs)   bands (ev):

    -2.4738   3.3960   3.3988   3.4017   8.9493   8.9548   8.9602   9.4332
     9.4341   9.4350

          k = 0.1667-0.1667-0.1667 (   943 PWs)   bands (ev):

    -2.4738   3.3953   3.3988   3.4022   8.9482   8.9548   8.9612   9.4329
     9.4341   9.4353

          k =-0.1667 0.1667 0.5000 (   926 PWs)   bands (ev):

    -0.4899  -0.4734   5.1781   5.1785   5.4536   5.4542  10.9218  10.9296
    10.9298  10.9406

          k =-0.5000-0.1667 0.1667 (   926 PWs)   bands (ev):

    -0.4826  -0.4807   5.1784   5.1787   5.4534   5.4539  10.9271  10.9286
    10.9322  10.9343

          k = 0.5000-0.1667-0.1667 (   926 PWs)   bands (ev):

    -0.4826  -0.4807   5.1784   5.1786   5.4535   5.4539  10.9287  10.9298
    10.9307  10.9327

          k =-0.1667-0.5000 0.1667 (   926 PWs)   bands (ev):

    -0.4820  -0.4814   5.1786   5.1786   5.4535   5.4537  10.9269  10.9298
    10.9313  10.9341

          k =-0.1667 0.5000-0.1667 (   926 PWs)   bands (ev):

    -0.4820  -0.4814   5.1785   5.1786   5.4536   5.4537  10.9264  10.9296
    10.9315  10.9347

          k =-0.5000 0.1667 0.5000 (   944 PWs)   bands (ev):

     1.4740   1.4761   1.4905   1.4930   7.2095   7.2117   7.2269   7.2296
    13.0329  13.0424

          k =-0.5000 0.5000 0.1667 (   944 PWs)   bands (ev):

     1.4796   1.4816   1.4851   1.4873   7.2150   7.2174   7.2214   7.2239
    13.0363  13.0408

     the Fermi energy is     8.7697 ev

!    total energy              =    -158.04506954 Ry
     Harris-Foulkes estimate   =    -158.04507011 Ry
     estimated scf accuracy    <       0.00000081 Ry

     total all-electron energy =     -1942.616192 Ry

     The total energy is the sum of the following terms:

     one-electron contribution =      12.63565778 Ry
     hartree contribution      =       0.02534314 Ry
     xc contribution           =     -10.36770804 Ry
     ewald contribution        =     -21.62202615 Ry
     one-center paw contrib.   =    -138.71345944 Ry
     smearing contrib. (-TS)   =      -0.00287684 Ry

     convergence has been achieved in   7 iterations

     Forces acting on atoms (cartesian axes, Ry/au):

     atom    1 type  1   force =     0.00013220   -0.00006270    0.00078554
     atom    2 type  1   force =    -0.00029195    0.00033960    0.00078949
     atom    3 type  1   force =     0.00003386    0.00003582   -0.00093397
     atom    4 type  1   force =     0.00012590   -0.00031272   -0.00064105

     Total force =     0.001692     Total SCF correction =     0.000215
     SCF correction compared to forces is large: reduce conv_thr to get better values


     Computing stress (Cartesian axis) and pressure

          total   stress  (Ry/bohr**3)                   (kbar)     P=   -2.05
  -0.00001400  -0.00000004  -0.00000003         -2.06     -0.01     -0.00
  -0.00000004  -0.00001386   0.00000004         -0.01     -2.04      0.01
  -0.00000003   0.00000004  -0.00001400         -0.00      0.01     -2.06


     Writing output data file ApLlHtDAZiCfvjHs.save/

     init_run     :      0.32s CPU      0.32s WALL (       1 calls)
     electrons    :      2.05s CPU      2.05s WALL (       1 calls)
     forces       :      0.05s CPU      0.05s WALL (       1 calls)
     stress       :      0.09s CPU      0.09s WALL (       1 calls)

     Called by init_run:
     wfcinit      :      0.08s CPU      0.08s WALL (       1 calls)
     potinit      :      0.13s CPU      0.13s WALL (       1 calls)
     hinit0       :      0.11s CPU      0.11s WALL (       1 calls)

     Called by electrons:
     c_bands      :      0.96s CPU      0.96s WALL (       8 calls)
     sum_band     :      0.18s CPU      0.18s WALL (       8 calls)
     v_of_rho     :      0.06s CPU      0.06s WALL (       8 calls)
     newd         :      0.04s CPU      0.04s WALL (       8 calls)
     PAW_pot      :      0.92s CPU      0.92s WALL (       8 calls)
     mix_rho      :      0.01s CPU      0.01s WALL (       8 calls)

     Called by c_bands:
     init_us_2    :      0.04s CPU      0.04s WALL (     266 calls)
     cegterg      :      0.91s CPU      0.91s WALL (     112 calls)

     Called by sum_band:
     sum_band:bec :      0.00s CPU      0.00s WALL (     112 calls)
     addusdens    :      0.03s CPU      0.03s WALL (       8 calls)

     Called by *egterg:
     h_psi        :      0.67s CPU      0.67s WALL (     373 calls)
     s_psi        :      0.08s CPU      0.08s WALL (     373 calls)
     g_psi        :      0.01s CPU      0.01s WALL (     247 calls)
     cdiaghg      :      0.04s CPU      0.04s WALL (     345 calls)

     Called by h_psi:
     h_psi:pot    :      0.67s CPU      0.67s WALL (     373 calls)
     h_psi:calbec :      0.10s CPU      0.10s WALL (     373 calls)
     vloc_psi     :      0.49s CPU      0.50s WALL (     373 calls)
     add_vuspsi   :      0.08s CPU      0.08s WALL (     373 calls)

     General routines
     calbec       :      0.15s CPU      0.15s WALL (     555 calls)
     fft          :      0.03s CPU      0.03s WALL (     128 calls)
     ffts         :      0.00s CPU      0.00s WALL (      16 calls)
     fftw         :      0.52s CPU      0.52s WALL (    7214 calls)
     interpolate  :      0.00s CPU      0.00s WALL (       8 calls)

     Parallel routines

     PWSCF        :      2.80s CPU      2.81s WALL


   This run was terminated on:   4: 7:51  19Mar2020            

=------------------------------------------------------------------------------=
   JOB DONE.
=------------------------------------------------------------------------------=
