
     Program PWSCF v.6.4.1 starts on 19Jul2021 at  3:43:34 

     This program is part of the open-source Quantum ESPRESSO suite
     for quantum simulation of materials; please cite
         "P. Giannozzi et al., J. Phys.:Condens. Matter 21 395502 (2009);
         "P. Giannozzi et al., J. Phys.:Condens. Matter 29 465901 (2017);
          URL http://www.quantum-espresso.org", 
     in publications or presentations arising from this work. More details at
     http://www.quantum-espresso.org/quote

     Parallel version (MPI), running on     4 processors

     MPI processes distributed on     1 nodes
     R & G space division:  proc/nbgrp/npool/nimage =       4
     Reading input from /cloud/Code/python/qeforfit/examples/al/01/wd/configs/13/config_0005.in
Warning: card &IONS ignored
Warning: card ION_DYNAMICS = 'BFGS', ignored
Warning: card / ignored
Warning: card &CELL ignored
Warning: card CELL_DYNAMICS = 'BFGS', ignored
Warning: card CELL_FACTOR = 2.0, ignored
Warning: card PRESS = 0.0, ignored
Warning: card / ignored

     Current dimensions of program PWSCF are:
     Max number of different atomic species (ntypx) = 10
     Max number of k-points (npk) =  40000
     Max angular momentum in pseudopotentials (lmaxx) =  3
               file Al.pbe-nl-kjpaw_psl.1.0.0.UPF: wavefunction(s)  3S 3P renormalized

     Subspace diagonalization in iterative solution of the eigenvalue problem:
     a serial algorithm will be used


     Parallelization info
     --------------------
     sticks:   dense  smooth     PW     G-vecs:    dense   smooth      PW
     Min         929     929    258                42677    42677    6208
     Max         931     931    259                42678    42678    6211
     Sum        3721    3721   1033               170709   170709   24837



     bravais-lattice index     =            0
     lattice parameter (alat)  =      15.2891  a.u.
     unit-cell volume          =    3573.8999 (a.u.)^3
     number of atoms/cell      =           32
     number of atomic types    =            1
     number of electrons       =        96.00
     number of Kohn-Sham states=           58
     kinetic-energy cutoff     =      50.0000  Ry
     charge density cutoff     =     200.0000  Ry
     convergence threshold     =      1.0E-06
     mixing beta               =       0.1000
     number of iterations used =           10  TF        mixing
     Exchange-correlation      = SLA PW PBX PBC ( 1  4  3  4 0 0)

     celldm(1)=  15.289060  celldm(2)=   0.000000  celldm(3)=   0.000000
     celldm(4)=   0.000000  celldm(5)=   0.000000  celldm(6)=   0.000000

     crystal axes: (cart. coord. in units of alat)
               a(1) = (   1.000000   0.000000   0.000000 )  
               a(2) = (   0.000000   1.000000   0.000000 )  
               a(3) = (   0.000000   0.000000   1.000000 )  

     reciprocal axes: (cart. coord. in units 2 pi/alat)
               b(1) = (  1.000000  0.000000  0.000000 )  
               b(2) = (  0.000000  1.000000  0.000000 )  
               b(3) = (  0.000000  0.000000  1.000000 )  


     PseudoPot. # 1 for Al read from file:
     /opt/pp/Al.pbe-nl-kjpaw_psl.1.0.0.UPF
     MD5 check sum: 1b67f78b73fe58c7924490f171ce8a1e
     Pseudo is Projector augmented-wave + core cor, Zval =  3.0
     Generated using "atomic" code by A. Dal Corso v.6.3
     Shape of augmentation charge: PSQ
     Using radial grid of 1135 points,  4 beta functions with: 
                l(1) =   0
                l(2) =   0
                l(3) =   1
                l(4) =   1
     Q(r) pseudized with 0 coefficients 


     atomic species   valence    mass     pseudopotential
        Al             3.00    26.98200     Al( 1.00)

     No symmetry found



   Cartesian axes

     site n.     atom                  positions (alat units)
         1           Al  tau(   1) = (  -0.0043161  -0.0038104  -0.0031089  )
         2           Al  tau(   2) = (   0.2470297   0.2437985  -0.0030815  )
         3           Al  tau(   3) = (   0.2449625  -0.0035589   0.2496174  )
         4           Al  tau(   4) = (  -0.0041641   0.2486970   0.2482773  )
         5           Al  tau(   5) = (  -0.0008583  -0.0009025   0.4946491  )
         6           Al  tau(   6) = (   0.2475070   0.2440690   0.4961186  )
         7           Al  tau(   7) = (   0.2464087  -0.0020799   0.7447336  )
         8           Al  tau(   8) = (  -0.0032661   0.2474376   0.7485940  )
         9           Al  tau(   9) = (  -0.0010782   0.4973676  -0.0041094  )
        10           Al  tau(  10) = (   0.2477489   0.7481877   0.0009343  )
        11           Al  tau(  11) = (   0.2483421   0.4973803   0.2490847  )
        12           Al  tau(  12) = (  -0.0034649   0.7466215   0.2463793  )
        13           Al  tau(  13) = (  -0.0026041   0.4979474   0.4972624  )
        14           Al  tau(  14) = (   0.2456445   0.7468337   0.4945251  )
        15           Al  tau(  15) = (   0.2501097   0.4935510   0.7424321  )
        16           Al  tau(  16) = (  -0.0078558   0.7425459   0.7459935  )
        17           Al  tau(  17) = (   0.4985170  -0.0051278  -0.0043886  )
        18           Al  tau(  18) = (   0.7450250   0.2472032  -0.0067190  )
        19           Al  tau(  19) = (   0.7417054  -0.0050738   0.2470000  )
        20           Al  tau(  20) = (   0.4957778   0.2456126   0.2440585  )
        21           Al  tau(  21) = (   0.4951302  -0.0004134   0.4957470  )
        22           Al  tau(  22) = (   0.7468950   0.2424299   0.4955036  )
        23           Al  tau(  23) = (   0.7465040  -0.0047472   0.7463832  )
        24           Al  tau(  24) = (   0.4962121   0.2447140   0.7460137  )
        25           Al  tau(  25) = (   0.4943087   0.4974612  -0.0065522  )
        26           Al  tau(  26) = (   0.7433467   0.7472481  -0.0006446  )
        27           Al  tau(  27) = (   0.7472826   0.4936999   0.2454305  )
        28           Al  tau(  28) = (   0.4971275   0.7435682   0.2485838  )
        29           Al  tau(  29) = (   0.4921935   0.4973064   0.4965599  )
        30           Al  tau(  30) = (   0.7480626   0.7459225   0.4943335  )
        31           Al  tau(  31) = (   0.7454422   0.4961890   0.7477458  )
        32           Al  tau(  32) = (   0.4962458   0.7454600   0.7450893  )

     number of k points=    14  Marzari-Vanderbilt smearing, width (Ry)=  0.0200
                       cart. coord. in units 2pi/alat
        k(    1) = (   0.1666667   0.1666667   0.1666667), wk =   0.1481481
        k(    2) = (   0.1666667   0.1666667  -0.5000000), wk =   0.1481481
        k(    3) = (   0.1666667  -0.5000000  -0.5000000), wk =   0.1481481
        k(    4) = (  -0.5000000  -0.5000000  -0.5000000), wk =   0.0740741
        k(    5) = (  -0.1666667  -0.1666667   0.1666667), wk =   0.1481481
        k(    6) = (  -0.1666667   0.1666667  -0.1666667), wk =   0.1481481
        k(    7) = (   0.1666667  -0.1666667  -0.1666667), wk =   0.1481481
        k(    8) = (  -0.1666667   0.1666667   0.5000000), wk =   0.1481481
        k(    9) = (  -0.5000000  -0.1666667   0.1666667), wk =   0.1481481
        k(   10) = (   0.5000000  -0.1666667  -0.1666667), wk =   0.1481481
        k(   11) = (  -0.1666667  -0.5000000   0.1666667), wk =   0.1481481
        k(   12) = (  -0.1666667   0.5000000  -0.1666667), wk =   0.1481481
        k(   13) = (  -0.5000000   0.1666667   0.5000000), wk =   0.1481481
        k(   14) = (  -0.5000000   0.5000000   0.1666667), wk =   0.1481481

     Dense  grid:   170709 G-vectors     FFT dimensions: (  72,  72,  72)

     Estimated max dynamical RAM per process >     208.76 MB

     Estimated total dynamical RAM >     835.04 MB

     Initial potential from superposition of free atoms

     starting charge   95.92671, renormalised to   96.00000
     Starting wfcs are  128 randomized atomic wfcs
     Checking if some PAW data can be deallocated... 

     total cpu time spent up to now is       28.8 secs

     Self-consistent Calculation

     iteration #  1     ecut=    50.00 Ry     beta= 0.10
     Davidson diagonalization with overlap
     ethr =  1.00E-02,  avg # of iterations =  3.0

     Threshold (ethr) on eigenvalues was too large:
     Diagonalizing with lowered threshold

     Davidson diagonalization with overlap
     ethr =  1.97E-04,  avg # of iterations =  3.6

     total cpu time spent up to now is      112.2 secs

     total energy              =   -1264.10605320 Ry
     Harris-Foulkes estimate   =   -1264.11239124 Ry
     estimated scf accuracy    <       0.18553499 Ry

     iteration #  2     ecut=    50.00 Ry     beta= 0.10
     Davidson diagonalization with overlap
     ethr =  1.93E-04,  avg # of iterations =  1.0

     total cpu time spent up to now is      139.1 secs

     total energy              =   -1264.05729380 Ry
     Harris-Foulkes estimate   =   -1264.10689592 Ry
     estimated scf accuracy    <       0.16118520 Ry

     iteration #  3     ecut=    50.00 Ry     beta= 0.10
     Davidson diagonalization with overlap
     ethr =  1.68E-04,  avg # of iterations =  1.0

     total cpu time spent up to now is      165.8 secs

     total energy              =   -1264.06108110 Ry
     Harris-Foulkes estimate   =   -1264.06116142 Ry
     estimated scf accuracy    <       0.00066760 Ry

     iteration #  4     ecut=    50.00 Ry     beta= 0.10
     Davidson diagonalization with overlap
     c_bands:  2 eigenvalues not converged
     ethr =  6.95E-07,  avg # of iterations =  5.9

     total cpu time spent up to now is      233.0 secs

     total energy              =   -1264.06220700 Ry
     Harris-Foulkes estimate   =   -1264.06221386 Ry
     estimated scf accuracy    <       0.00097212 Ry

     iteration #  5     ecut=    50.00 Ry     beta= 0.10
     Davidson diagonalization with overlap
     ethr =  6.95E-07,  avg # of iterations =  1.9

     total cpu time spent up to now is      260.0 secs

     total energy              =   -1264.06171104 Ry
     Harris-Foulkes estimate   =   -1264.06220863 Ry
     estimated scf accuracy    <       0.00096727 Ry

     iteration #  6     ecut=    50.00 Ry     beta= 0.10
     Davidson diagonalization with overlap
     ethr =  6.95E-07,  avg # of iterations =  1.0

     total cpu time spent up to now is      286.7 secs

     total energy              =   -1264.06170536 Ry
     Harris-Foulkes estimate   =   -1264.06176114 Ry
     estimated scf accuracy    <       0.00029211 Ry

     iteration #  7     ecut=    50.00 Ry     beta= 0.10
     Davidson diagonalization with overlap
     ethr =  3.04E-07,  avg # of iterations =  3.2

     total cpu time spent up to now is      328.5 secs

     total energy              =   -1264.06179396 Ry
     Harris-Foulkes estimate   =   -1264.06179535 Ry
     estimated scf accuracy    <       0.00005153 Ry

     iteration #  8     ecut=    50.00 Ry     beta= 0.10
     Davidson diagonalization with overlap
     ethr =  5.37E-08,  avg # of iterations =  1.1

     total cpu time spent up to now is      355.2 secs

     total energy              =   -1264.06179280 Ry
     Harris-Foulkes estimate   =   -1264.06179523 Ry
     estimated scf accuracy    <       0.00005045 Ry

     iteration #  9     ecut=    50.00 Ry     beta= 0.10
     Davidson diagonalization with overlap
     ethr =  5.26E-08,  avg # of iterations =  1.0

     total cpu time spent up to now is      381.9 secs

     total energy              =   -1264.06177056 Ry
     Harris-Foulkes estimate   =   -1264.06179309 Ry
     estimated scf accuracy    <       0.00004248 Ry

     iteration # 10     ecut=    50.00 Ry     beta= 0.10
     Davidson diagonalization with overlap
     ethr =  4.42E-08,  avg # of iterations =  5.1

     total cpu time spent up to now is      424.8 secs

     total energy              =   -1264.06178845 Ry
     Harris-Foulkes estimate   =   -1264.06180553 Ry
     estimated scf accuracy    <       0.00014070 Ry

     iteration # 11     ecut=    50.00 Ry     beta= 0.10
     Davidson diagonalization with overlap
     ethr =  4.42E-08,  avg # of iterations =  1.8

     total cpu time spent up to now is      452.0 secs

     total energy              =   -1264.06178803 Ry
     Harris-Foulkes estimate   =   -1264.06179162 Ry
     estimated scf accuracy    <       0.00005079 Ry

     iteration # 12     ecut=    50.00 Ry     beta= 0.10
     Davidson diagonalization with overlap
     ethr =  4.42E-08,  avg # of iterations =  1.0

     total cpu time spent up to now is      478.3 secs

     total energy              =   -1264.06178394 Ry
     Harris-Foulkes estimate   =   -1264.06178873 Ry
     estimated scf accuracy    <       0.00003188 Ry

     iteration # 13     ecut=    50.00 Ry     beta= 0.10
     Davidson diagonalization with overlap
     ethr =  3.32E-08,  avg # of iterations =  2.4

     total cpu time spent up to now is      505.4 secs

     total energy              =   -1264.06178559 Ry
     Harris-Foulkes estimate   =   -1264.06178588 Ry
     estimated scf accuracy    <       0.00000535 Ry

     iteration # 14     ecut=    50.00 Ry     beta= 0.10
     Davidson diagonalization with overlap
     ethr =  5.57E-09,  avg # of iterations =  3.7

     total cpu time spent up to now is      541.1 secs

     End of self-consistent calculation

          k = 0.1667 0.1667 0.1667 ( 21266 PWs)   bands (ev):

    -3.0583  -1.5914  -1.5623  -1.5263  -0.1220  -0.1111  -0.0871  -0.0707
    -0.0563  -0.0141   1.3397   1.3567   1.3813   1.3976   1.4069   1.4170
     1.4413   2.7948   2.8231   2.8371   2.8506   2.8628   2.8897   4.1949
     4.2029   4.2119   4.2925   4.3025   4.3107   5.5744   5.5779   5.6139
     5.6221   5.6387   5.6528   5.7263   6.9842   6.9914   7.0007   7.0247
     7.0326   7.0407   7.0527   7.0629   7.0908   7.3601   7.3673   7.3782
     8.4085   8.4141   8.4342   8.4499   8.4651   8.4720   8.7490   8.7550
     8.7702   8.7879

          k = 0.1667 0.1667-0.5000 ( 21312 PWs)   bands (ev):

    -2.5720  -2.5427  -1.0845  -1.0758  -1.0568  -1.0385   0.3679   0.3925
     0.4116   0.4236   0.4412   0.4478   1.8535   1.8587   1.8695   1.8761
     1.8949   1.9007   3.2925   3.3054   3.3123   3.3182   3.3341   3.3495
     4.6553   4.6603   4.6829   4.6894   4.7242   4.7409   4.7446   4.7591
     4.7768   4.7891   6.0851   6.0932   6.1086   6.1333   6.1802   6.1876
     6.1948   6.2073   7.4828   7.4906   7.5107   7.5302   7.5963   7.6119
     7.8003   7.8095   7.8284   7.8399   8.9259   8.9287   8.9422   8.9523
     9.2767   9.2834

          k = 0.1667-0.5000-0.5000 ( 21356 PWs)   bands (ev):

    -2.0859  -2.0734  -2.0442  -2.0277  -0.5975  -0.5840  -0.5557  -0.5386
     0.8749   0.8885   0.9165   0.9337   2.3077   2.3238   2.3323   2.3435
     2.3554   2.3813   2.3919   2.4012   3.7441   3.7616   3.7708   3.7821
     3.7917   3.8193   3.8302   3.8379   5.1129   5.1276   5.1562   5.1748
     5.2004   5.2157   5.2246   5.2362   5.2492   5.2738   5.2857   5.2933
     6.6200   6.6271   6.6420   6.6509   8.0468   8.0547   8.0680   8.0774
     8.3433   8.3559   8.3799   8.3963   9.2946   9.3151   9.3277   9.3411
     9.3530   9.3818

          k =-0.5000-0.5000-0.5000 ( 21368 PWs)   bands (ev):

    -1.6168  -1.6067  -1.5765  -1.5683  -1.5533  -1.5327  -1.5260  -1.4954
     2.7453   2.7482   2.7644   2.7716   2.7867   2.7982   2.8003   2.8120
     2.8158   2.8231   2.8274   2.8330   2.8377   2.8431   2.8496   2.8522
     2.8613   2.8722   2.8806   2.8822   2.8927   2.9119   2.9282   2.9535
     7.0326   7.0444   7.0536   7.0603   7.0736   7.0812   7.0862   7.0895
     7.0906   7.0994   7.1139   7.1198   7.1283   7.1313   7.1338   7.1420
     7.1468   7.1569   7.1609   7.1633   7.1758   7.1827   7.2033   7.2054
    11.2708  11.2766

          k =-0.1667-0.1667 0.1667 ( 21266 PWs)   bands (ev):

    -3.0583  -1.5849  -1.5629  -1.5329  -0.1196  -0.1019  -0.0877  -0.0689
    -0.0457  -0.0375   1.3347   1.3726   1.3795   1.3894   1.4045   1.4176
     1.4424   2.8069   2.8238   2.8334   2.8467   2.8599   2.8872   4.1992
     4.2050   4.2095   4.2952   4.3008   4.3056   5.5626   5.5994   5.6055
     5.6187   5.6380   5.6559   5.7255   6.9899   6.9992   7.0110   7.0177
     7.0304   7.0358   7.0497   7.0633   7.0842   7.3627   7.3687   7.3745
     8.4118   8.4248   8.4374   8.4460   8.4539   8.4717   8.7464   8.7615
     8.7741   8.7874

          k =-0.1667 0.1667-0.1667 ( 21266 PWs)   bands (ev):

    -3.0583  -1.5909  -1.5604  -1.5290  -0.1240  -0.1063  -0.0826  -0.0660
    -0.0512  -0.0314   1.3463   1.3568   1.3746   1.3883   1.4074   1.4245
     1.4430   2.8081   2.8201   2.8296   2.8515   2.8646   2.8841   4.1949
     4.2039   4.2131   4.2910   4.3016   4.3113   5.5760   5.5827   5.5981
     5.6135   5.6435   5.6642   5.7269   6.9923   6.9960   7.0054   7.0139
     7.0318   7.0442   7.0540   7.0622   7.0823   7.3579   7.3688   7.3780
     8.4102   8.4196   8.4277   8.4549   8.4610   8.4725   8.7462   8.7583
     8.7717   8.7921

          k = 0.1667-0.1667-0.1667 ( 21266 PWs)   bands (ev):

    -3.0583  -1.5870  -1.5677  -1.5254  -0.1250  -0.1022  -0.0852  -0.0800
    -0.0629  -0.0055   1.3476   1.3549   1.3677   1.3921   1.4029   1.4149
     1.4603   2.7977   2.8207   2.8283   2.8476   2.8618   2.9016   4.1936
     4.2044   4.2141   4.2901   4.3012   4.3119   5.5726   5.5858   5.6018
     5.6186   5.6356   5.6657   5.7261   6.9796   6.9894   7.0048   7.0130
     7.0269   7.0424   7.0606   7.0708   7.0911   7.3588   7.3688   7.3812
     8.4024   8.4238   8.4306   8.4524   8.4577   8.4740   8.7510   8.7571
     8.7660   8.7925

          k =-0.1667 0.1667 0.5000 ( 21312 PWs)   bands (ev):

    -2.5720  -2.5427  -1.0914  -1.0680  -1.0624  -1.0336   0.3716   0.3868
     0.4063   0.4237   0.4392   0.4568   1.8413   1.8625   1.8709   1.8779
     1.8927   1.9082   3.2934   3.3009   3.3128   3.3236   3.3373   3.3441
     4.6488   4.6671   4.6801   4.6950   4.7242   4.7339   4.7387   4.7509
     4.7846   4.7994   6.0770   6.1027   6.1061   6.1370   6.1747   6.1893
     6.1949   6.2079   7.4803   7.4943   7.5108   7.5283   7.5956   7.6115
     7.7959   7.8150   7.8247   7.8447   8.9216   8.9331   8.9429   8.9523
     9.2745   9.2868

          k =-0.5000-0.1667 0.1667 ( 21312 PWs)   bands (ev):

    -2.5734  -2.5411  -1.0993  -1.0654  -1.0566  -1.0347   0.3755   0.3935
     0.4067   0.4235   0.4352   0.4503   1.8465   1.8582   1.8664   1.8796
     1.8979   1.9055   3.2907   3.3018   3.3152   3.3254   3.3327   3.3447
     4.6561   4.6583   4.6819   4.6972   4.7223   4.7363   4.7486   4.7625
     4.7704   4.7899   6.0694   6.1034   6.1147   6.1376   6.1765   6.1871
     6.1900   6.2110   7.4752   7.4962   7.5163   7.5276   7.5960   7.6116
     7.8004   7.8056   7.8252   7.8459   8.9201   8.9342   8.9368   8.9603
     9.2686   9.2884

          k = 0.5000-0.1667-0.1667 ( 21312 PWs)   bands (ev):

    -2.5734  -2.5410  -1.1030  -1.0656  -1.0567  -1.0300   0.3590   0.3909
     0.4038   0.4252   0.4336   0.4728   1.8490   1.8530   1.8661   1.8783
     1.8996   1.9064   3.2843   3.2957   3.3100   3.3253   3.3392   3.3571
     4.6487   4.6607   4.6798   4.6939   4.7130   4.7278   4.7476   4.7638
     4.7847   4.8047   6.0639   6.1034   6.1132   6.1380   6.1748   6.1887
     6.1972   6.2086   7.4768   7.4925   7.5047   7.5354   7.5967   7.6110
     7.7941   7.8143   7.8295   7.8455   8.9223   8.9328   8.9442   8.9534
     9.2703   9.2865

          k =-0.1667-0.5000 0.1667 ( 21312 PWs)   bands (ev):

    -2.5617  -2.5531  -1.0889  -1.0839  -1.0513  -1.0318   0.3783   0.3870
     0.4081   0.4119   0.4369   0.4646   1.8513   1.8624   1.8726   1.8774
     1.8871   1.8997   3.2890   3.2953   3.3163   3.3259   3.3372   3.3474
     4.6665   4.6708   4.6746   4.6795   4.7192   4.7261   4.7497   4.7517
     4.7895   4.7988   6.0797   6.0850   6.1188   6.1397   6.1868   6.1891
     6.1923   6.1969   7.4827   7.4991   7.5121   7.5174   7.6008   7.6063
     7.8135   7.8158   7.8239   7.8279   8.9340   8.9351   8.9404   8.9422
     9.2760   9.2923

          k =-0.1667 0.5000-0.1667 ( 21312 PWs)   bands (ev):

    -2.5616  -2.5531  -1.0927  -1.0859  -1.0446  -1.0326   0.3792   0.3906
     0.4093   0.4172   0.4347   0.4547   1.8486   1.8548   1.8729   1.8874
     1.8915   1.8970   3.2850   3.2920   3.3143   3.3238   3.3453   3.3504
     4.6630   4.6689   4.6713   4.6862   4.7166   4.7224   4.7602   4.7689
     4.7772   4.7897   6.0764   6.0849   6.1234   6.1371   6.1843   6.1877
     6.1911   6.2051   7.4873   7.4942   7.5107   7.5230   7.6004   7.6054
     7.8139   7.8150   7.8164   7.8328   8.9300   8.9323   8.9386   8.9496
     9.2805   9.2886

          k =-0.5000 0.1667 0.5000 ( 21356 PWs)   bands (ev):

    -2.1018  -2.0693  -2.0420  -2.0165  -0.6143  -0.5811  -0.5543  -0.5279
     0.8596   0.8908   0.9188   0.9443   2.3039   2.3120   2.3288   2.3565
     2.3682   2.3724   2.3877   2.4111   3.7405   3.7475   3.7653   3.7936
     3.8063   3.8085   3.8245   3.8476   5.0960   5.1297   5.1594   5.1855
     5.1958   5.2049   5.2203   5.2485   5.2599   5.2669   5.2800   5.3044
     6.6133   6.6279   6.6440   6.6561   8.0381   8.0548   8.0686   8.0828
     8.3293   8.3593   8.3804   8.4061   9.2943   9.3035   9.3209   9.3543
     9.3650   9.3711

          k =-0.5000 0.5000 0.1667 ( 21356 PWs)   bands (ev):

    -2.0839  -2.0691  -2.0415  -2.0373  -0.5946  -0.5800  -0.5514  -0.5489
     0.8767   0.8912   0.9203   0.9238   2.3102   2.3254   2.3320   2.3503
     2.3591   2.3785   2.3885   2.3953   3.7464   3.7630   3.7689   3.7874
     3.7955   3.8146   3.8273   3.8327   5.1149   5.1313   5.1598   5.1626
     5.2042   5.2167   5.2256   5.2425   5.2520   5.2713   5.2795   5.2886
     6.6226   6.6305   6.6443   6.6465   8.0467   8.0550   8.0703   8.0723
     8.3451   8.3585   8.3853   8.3874   9.2988   9.3174   9.3248   9.3452
     9.3555   9.3864

     the Fermi energy is     7.7791 ev

!    total energy              =   -1264.06178579 Ry
     Harris-Foulkes estimate   =   -1264.06178656 Ry
     estimated scf accuracy    <       0.00000078 Ry

     total all-electron energy =    -15540.630763 Ry

     The total energy is the sum of the following terms:

     one-electron contribution =     100.95068946 Ry
     hartree contribution      =       0.22023451 Ry
     xc contribution           =     -82.86280243 Ry
     ewald contribution        =    -172.70021204 Ry
     one-center paw contrib.   =   -1109.67263798 Ry
     smearing contrib. (-TS)   =       0.00294270 Ry

     convergence has been achieved in  14 iterations

     Forces acting on atoms (cartesian axes, Ry/au):

     atom    1 type  1   force =    -0.00007785   -0.00003134    0.00021915
     atom    2 type  1   force =    -0.00117249    0.00243842    0.00090482
     atom    3 type  1   force =     0.00266067   -0.00018205   -0.00635234
     atom    4 type  1   force =    -0.00024165   -0.00191585   -0.00402633
     atom    5 type  1   force =    -0.00535316   -0.00459808    0.00383419
     atom    6 type  1   force =    -0.00167757    0.00531478   -0.00008197
     atom    7 type  1   force =    -0.00162990   -0.00618349    0.00398137
     atom    8 type  1   force =     0.00040652   -0.00089914   -0.00301392
     atom    9 type  1   force =     0.00009613   -0.00092517    0.00152088
     atom   10 type  1   force =    -0.00190418   -0.00080758   -0.00736364
     atom   11 type  1   force =    -0.00300580   -0.00314032   -0.00483692
     atom   12 type  1   force =    -0.00106339    0.00047187   -0.00087085
     atom   13 type  1   force =    -0.00206857   -0.00400576   -0.00044686
     atom   14 type  1   force =    -0.00028600    0.00185384    0.00503299
     atom   15 type  1   force =    -0.00643972    0.00340448    0.00599140
     atom   16 type  1   force =     0.00702495    0.00596017    0.00160309
     atom   17 type  1   force =    -0.00515444    0.00060876    0.00097634
     atom   18 type  1   force =     0.00228584   -0.00069187    0.00507746
     atom   19 type  1   force =     0.00601894    0.00263416   -0.00100537
     atom   20 type  1   force =     0.00090189    0.00240247    0.00072482
     atom   21 type  1   force =     0.00233756   -0.00652683    0.00129926
     atom   22 type  1   force =    -0.00145092    0.00669759    0.00153278
     atom   23 type  1   force =     0.00142711   -0.00112288   -0.00239776
     atom   24 type  1   force =     0.00150958    0.00156464   -0.00098571
     atom   25 type  1   force =     0.00107710   -0.00209391    0.00400493
     atom   26 type  1   force =     0.00375458   -0.00268865   -0.00295929
     atom   27 type  1   force =    -0.00194158    0.00033790    0.00126326
     atom   28 type  1   force =    -0.00106135    0.00285870   -0.00087437
     atom   29 type  1   force =     0.00999456   -0.00403347   -0.00131158
     atom   30 type  1   force =    -0.00303709    0.00050049    0.00289126
     atom   31 type  1   force =    -0.00101218   -0.00070598   -0.00405775
     atom   32 type  1   force =    -0.00091757    0.00350410   -0.00027333

     Total force =     0.032069     Total SCF correction =     0.001206


     Computing stress (Cartesian axis) and pressure

          total   stress  (Ry/bohr**3)                   (kbar)     P=   -3.11
  -0.00002095  -0.00000020  -0.00000019         -3.08     -0.03     -0.03
  -0.00000020  -0.00002099   0.00000021         -0.03     -3.09      0.03
  -0.00000019   0.00000021  -0.00002139         -0.03      0.03     -3.15


     Writing output data file CVgWGJoyuiacBmnv.save/

     init_run     :     28.15s CPU     28.38s WALL (       1 calls)
     electrons    :    504.77s CPU    512.41s WALL (       1 calls)
     forces       :     12.23s CPU     12.26s WALL (       1 calls)
     stress       :     15.16s CPU     15.18s WALL (       1 calls)

     Called by init_run:
     wfcinit      :     27.49s CPU     27.70s WALL (       1 calls)
     potinit      :      0.33s CPU      0.34s WALL (       1 calls)
     hinit0       :      0.16s CPU      0.16s WALL (       1 calls)

     Called by electrons:
     c_bands      :    444.80s CPU    451.56s WALL (      15 calls)
     sum_band     :     53.48s CPU     54.30s WALL (      15 calls)
     v_of_rho     :      0.72s CPU      0.75s WALL (      15 calls)
     newd         :      2.17s CPU      2.20s WALL (      15 calls)
     PAW_pot      :      3.81s CPU      3.81s WALL (      15 calls)
     mix_rho      :      0.21s CPU      0.22s WALL (      15 calls)

     Called by c_bands:
     init_us_2    :      2.90s CPU      2.98s WALL (     462 calls)
     cegterg      :    439.20s CPU    445.55s WALL (     210 calls)

     Called by sum_band:
     sum_band:bec :      0.05s CPU      0.05s WALL (     210 calls)
     addusdens    :      2.01s CPU      2.24s WALL (      15 calls)

     Called by *egterg:
     h_psi        :    258.16s CPU    262.27s WALL (     737 calls)
     s_psi        :    102.36s CPU    102.99s WALL (     737 calls)
     g_psi        :      0.35s CPU      0.35s WALL (     513 calls)
     cdiaghg      :      6.03s CPU      6.04s WALL (     709 calls)

     Called by h_psi:
     h_psi:pot    :    257.53s CPU    261.17s WALL (     737 calls)
     h_psi:calbec :    105.85s CPU    106.23s WALL (     737 calls)
     vloc_psi     :     46.71s CPU     49.73s WALL (     737 calls)
     add_vuspsi   :    104.96s CPU    105.20s WALL (     737 calls)

     General routines
     calbec       :    160.29s CPU    160.77s WALL (    1017 calls)
     fft          :      0.32s CPU      0.34s WALL (     191 calls)
     ffts         :      0.03s CPU      0.03s WALL (      15 calls)
     fftw         :     51.23s CPU     54.42s WALL (   76280 calls)

     Parallel routines
     fft_scatt_xy :      6.30s CPU      6.71s WALL (   76486 calls)
     fft_scatt_yz :     15.94s CPU     17.00s WALL (   76486 calls)

     PWSCF        :   9m20.79s CPU   9m28.89s WALL


   This run was terminated on:   3:53: 3  19Jul2021            

=------------------------------------------------------------------------------=
   JOB DONE.
=------------------------------------------------------------------------------=
