
     Program PWSCF v.6.4.1 starts on 19Jul2021 at  1:36:16 

     This program is part of the open-source Quantum ESPRESSO suite
     for quantum simulation of materials; please cite
         "P. Giannozzi et al., J. Phys.:Condens. Matter 21 395502 (2009);
         "P. Giannozzi et al., J. Phys.:Condens. Matter 29 465901 (2017);
          URL http://www.quantum-espresso.org", 
     in publications or presentations arising from this work. More details at
     http://www.quantum-espresso.org/quote

     Parallel version (MPI), running on     4 processors

     MPI processes distributed on     1 nodes
     R & G space division:  proc/nbgrp/npool/nimage =       4
     Reading input from /cloud/Code/python/qeforfit/examples/al/01/wd/configs/11/config_0001.in
Warning: card &IONS ignored
Warning: card ION_DYNAMICS = 'BFGS', ignored
Warning: card / ignored
Warning: card &CELL ignored
Warning: card CELL_DYNAMICS = 'BFGS', ignored
Warning: card CELL_FACTOR = 2.0, ignored
Warning: card PRESS = 0.0, ignored
Warning: card / ignored

     Current dimensions of program PWSCF are:
     Max number of different atomic species (ntypx) = 10
     Max number of k-points (npk) =  40000
     Max angular momentum in pseudopotentials (lmaxx) =  3
               file Al.pbe-nl-kjpaw_psl.1.0.0.UPF: wavefunction(s)  3S 3P renormalized

     Subspace diagonalization in iterative solution of the eigenvalue problem:
     a serial algorithm will be used


     Parallelization info
     --------------------
     sticks:   dense  smooth     PW     G-vecs:    dense   smooth      PW
     Min         928     928    258                42646    42646    6208
     Max         929     929    259                42649    42649    6211
     Sum        3713    3713   1033               170589   170589   24837



     bravais-lattice index     =            0
     lattice parameter (alat)  =      15.2758  a.u.
     unit-cell volume          =    3564.6148 (a.u.)^3
     number of atoms/cell      =           32
     number of atomic types    =            1
     number of electrons       =        96.00
     number of Kohn-Sham states=           58
     kinetic-energy cutoff     =      50.0000  Ry
     charge density cutoff     =     200.0000  Ry
     convergence threshold     =      1.0E-06
     mixing beta               =       0.1000
     number of iterations used =           10  TF        mixing
     Exchange-correlation      = SLA PW PBX PBC ( 1  4  3  4 0 0)

     celldm(1)=  15.275808  celldm(2)=   0.000000  celldm(3)=   0.000000
     celldm(4)=   0.000000  celldm(5)=   0.000000  celldm(6)=   0.000000

     crystal axes: (cart. coord. in units of alat)
               a(1) = (   1.000000   0.000000   0.000000 )  
               a(2) = (   0.000000   1.000000   0.000000 )  
               a(3) = (   0.000000   0.000000   1.000000 )  

     reciprocal axes: (cart. coord. in units 2 pi/alat)
               b(1) = (  1.000000  0.000000  0.000000 )  
               b(2) = (  0.000000  1.000000  0.000000 )  
               b(3) = (  0.000000  0.000000  1.000000 )  


     PseudoPot. # 1 for Al read from file:
     /opt/pp/Al.pbe-nl-kjpaw_psl.1.0.0.UPF
     MD5 check sum: 1b67f78b73fe58c7924490f171ce8a1e
     Pseudo is Projector augmented-wave + core cor, Zval =  3.0
     Generated using "atomic" code by A. Dal Corso v.6.3
     Shape of augmentation charge: PSQ
     Using radial grid of 1135 points,  4 beta functions with: 
                l(1) =   0
                l(2) =   0
                l(3) =   1
                l(4) =   1
     Q(r) pseudized with 0 coefficients 


     atomic species   valence    mass     pseudopotential
        Al             3.00    26.98200     Al( 1.00)

     No symmetry found



   Cartesian axes

     site n.     atom                  positions (alat units)
         1           Al  tau(   1) = (  -0.0028799  -0.0025425  -0.0020744  )
         2           Al  tau(   2) = (   0.2480181   0.2458621  -0.0020561  )
         3           Al  tau(   3) = (   0.2466388  -0.0023746   0.2497447  )
         4           Al  tau(   4) = (  -0.0027785   0.2491306   0.2488506  )
         5           Al  tau(   5) = (  -0.0005727  -0.0006022   0.4964297  )
         6           Al  tau(   6) = (   0.2483366   0.2460425   0.4974102  )
         7           Al  tau(   7) = (   0.2476037  -0.0013878   0.7464860  )
         8           Al  tau(   8) = (  -0.0021793   0.2482903   0.7490619  )
         9           Al  tau(   9) = (  -0.0007194   0.4982436  -0.0027420  )
        10           Al  tau(  10) = (   0.2484980   0.7487907   0.0006234  )
        11           Al  tau(  11) = (   0.2488938   0.4982520   0.2493893  )
        12           Al  tau(  12) = (  -0.0023119   0.7477457   0.2475841  )
        13           Al  tau(  13) = (  -0.0017376   0.4986304   0.4981733  )
        14           Al  tau(  14) = (   0.2470938   0.7478873   0.4963469  )
        15           Al  tau(  15) = (   0.2500732   0.4956969   0.7449504  )
        16           Al  tau(  16) = (  -0.0052417   0.7450263   0.7473267  )
        17           Al  tau(  17) = (   0.4990105  -0.0034215  -0.0029283  )
        18           Al  tau(  18) = (   0.7466804   0.2481338  -0.0044832  )
        19           Al  tau(  19) = (   0.7444655  -0.0033854   0.2479983  )
        20           Al  tau(  20) = (   0.4971827   0.2470725   0.2460356  )
        21           Al  tau(  21) = (   0.4967507  -0.0002758   0.4971622  )
        22           Al  tau(  22) = (   0.7479282   0.2449489   0.4969998  )
        23           Al  tau(  23) = (   0.7476673  -0.0031676   0.7475867  )
        24           Al  tau(  24) = (   0.4974726   0.2464729   0.7473402  )
        25           Al  tau(  25) = (   0.4962025   0.4983060  -0.0043719  )
        26           Al  tau(  26) = (   0.7455606   0.7481638  -0.0004301  )
        27           Al  tau(  27) = (   0.7481868   0.4957963   0.2469510  )
        28           Al  tau(  28) = (   0.4980834   0.7457084   0.2490550  )
        29           Al  tau(  29) = (   0.4947911   0.4982027   0.4977046  )
        30           Al  tau(  30) = (   0.7487073   0.7472793   0.4962191  )
        31           Al  tau(  31) = (   0.7469588   0.4974571   0.7484959  )
        32           Al  tau(  32) = (   0.4974950   0.7469707   0.7467234  )

     number of k points=    14  Marzari-Vanderbilt smearing, width (Ry)=  0.0200
                       cart. coord. in units 2pi/alat
        k(    1) = (   0.1666667   0.1666667   0.1666667), wk =   0.1481481
        k(    2) = (   0.1666667   0.1666667  -0.5000000), wk =   0.1481481
        k(    3) = (   0.1666667  -0.5000000  -0.5000000), wk =   0.1481481
        k(    4) = (  -0.5000000  -0.5000000  -0.5000000), wk =   0.0740741
        k(    5) = (  -0.1666667  -0.1666667   0.1666667), wk =   0.1481481
        k(    6) = (  -0.1666667   0.1666667  -0.1666667), wk =   0.1481481
        k(    7) = (   0.1666667  -0.1666667  -0.1666667), wk =   0.1481481
        k(    8) = (  -0.1666667   0.1666667   0.5000000), wk =   0.1481481
        k(    9) = (  -0.5000000  -0.1666667   0.1666667), wk =   0.1481481
        k(   10) = (   0.5000000  -0.1666667  -0.1666667), wk =   0.1481481
        k(   11) = (  -0.1666667  -0.5000000   0.1666667), wk =   0.1481481
        k(   12) = (  -0.1666667   0.5000000  -0.1666667), wk =   0.1481481
        k(   13) = (  -0.5000000   0.1666667   0.5000000), wk =   0.1481481
        k(   14) = (  -0.5000000   0.5000000   0.1666667), wk =   0.1481481

     Dense  grid:   170589 G-vectors     FFT dimensions: (  72,  72,  72)

     Estimated max dynamical RAM per process >     208.44 MB

     Estimated total dynamical RAM >     833.78 MB

     Initial potential from superposition of free atoms

     starting charge   95.92671, renormalised to   96.00000
     Starting wfcs are  128 randomized atomic wfcs
     Checking if some PAW data can be deallocated... 

     total cpu time spent up to now is       33.1 secs

     Self-consistent Calculation

     iteration #  1     ecut=    50.00 Ry     beta= 0.10
     Davidson diagonalization with overlap
     ethr =  1.00E-02,  avg # of iterations =  3.0

     Threshold (ethr) on eigenvalues was too large:
     Diagonalizing with lowered threshold

     Davidson diagonalization with overlap
     ethr =  1.95E-04,  avg # of iterations =  3.6

     total cpu time spent up to now is      130.8 secs

     total energy              =   -1264.10800794 Ry
     Harris-Foulkes estimate   =   -1264.11423809 Ry
     estimated scf accuracy    <       0.18267299 Ry

     iteration #  2     ecut=    50.00 Ry     beta= 0.10
     Davidson diagonalization with overlap
     ethr =  1.90E-04,  avg # of iterations =  1.0

     total cpu time spent up to now is      162.6 secs

     total energy              =   -1264.06033682 Ry
     Harris-Foulkes estimate   =   -1264.10884690 Ry
     estimated scf accuracy    <       0.15871016 Ry

     iteration #  3     ecut=    50.00 Ry     beta= 0.10
     Davidson diagonalization with overlap
     ethr =  1.65E-04,  avg # of iterations =  1.0

     total cpu time spent up to now is      194.8 secs

     total energy              =   -1264.06367422 Ry
     Harris-Foulkes estimate   =   -1264.06374971 Ry
     estimated scf accuracy    <       0.00065600 Ry

     iteration #  4     ecut=    50.00 Ry     beta= 0.10
     Davidson diagonalization with overlap
     c_bands:  2 eigenvalues not converged
     ethr =  6.83E-07,  avg # of iterations =  5.5

     total cpu time spent up to now is      266.2 secs

     total energy              =   -1264.06457820 Ry
     Harris-Foulkes estimate   =   -1264.06460074 Ry
     estimated scf accuracy    <       0.00059980 Ry

     iteration #  5     ecut=    50.00 Ry     beta= 0.10
     Davidson diagonalization with overlap
     ethr =  6.25E-07,  avg # of iterations =  1.1

     total cpu time spent up to now is      295.9 secs

     total energy              =   -1264.06411005 Ry
     Harris-Foulkes estimate   =   -1264.06457998 Ry
     estimated scf accuracy    <       0.00057969 Ry

     iteration #  6     ecut=    50.00 Ry     beta= 0.10
     Davidson diagonalization with overlap
     ethr =  6.04E-07,  avg # of iterations =  2.0

     total cpu time spent up to now is      337.9 secs

     total energy              =   -1264.06424064 Ry
     Harris-Foulkes estimate   =   -1264.06421924 Ry
     estimated scf accuracy    <       0.00005510 Ry

     iteration #  7     ecut=    50.00 Ry     beta= 0.10
     Davidson diagonalization with overlap
     ethr =  5.74E-08,  avg # of iterations =  2.2

     total cpu time spent up to now is      368.2 secs

     total energy              =   -1264.06423379 Ry
     Harris-Foulkes estimate   =   -1264.06424387 Ry
     estimated scf accuracy    <       0.00001479 Ry

     iteration #  8     ecut=    50.00 Ry     beta= 0.10
     Davidson diagonalization with overlap
     c_bands:  1 eigenvalues not converged
     ethr =  1.54E-08,  avg # of iterations =  5.7

     total cpu time spent up to now is      412.1 secs

     total energy              =   -1264.06423765 Ry
     Harris-Foulkes estimate   =   -1264.06423667 Ry
     estimated scf accuracy    <       0.00000341 Ry

     iteration #  9     ecut=    50.00 Ry     beta= 0.10
     Davidson diagonalization with overlap
     ethr =  3.55E-09,  avg # of iterations =  2.6

     total cpu time spent up to now is      445.9 secs

     total energy              =   -1264.06423749 Ry
     Harris-Foulkes estimate   =   -1264.06423808 Ry
     estimated scf accuracy    <       0.00000226 Ry

     iteration # 10     ecut=    50.00 Ry     beta= 0.10
     Davidson diagonalization with overlap
     ethr =  2.36E-09,  avg # of iterations =  1.9

     total cpu time spent up to now is      475.2 secs

     total energy              =   -1264.06423720 Ry
     Harris-Foulkes estimate   =   -1264.06423767 Ry
     estimated scf accuracy    <       0.00000124 Ry

     iteration # 11     ecut=    50.00 Ry     beta= 0.10
     Davidson diagonalization with overlap
     ethr =  1.29E-09,  avg # of iterations =  2.6

     total cpu time spent up to now is      506.6 secs

     End of self-consistent calculation

          k = 0.1667 0.1667 0.1667 ( 21266 PWs)   bands (ev):

    -3.0479  -1.5681  -1.5486  -1.5244  -0.0918  -0.0848  -0.0687  -0.0577
    -0.0480  -0.0196   1.3740   1.3853   1.4017   1.4126   1.4190   1.4258
     1.4420   2.8300   2.8485   2.8578   2.8667   2.8751   2.8932   4.2195
     4.2249   4.2308   4.3169   4.3234   4.3291   5.6100   5.6124   5.6364
     5.6421   5.6532   5.6629   5.7497   7.0250   7.0289   7.0361   7.0523
     7.0579   7.0618   7.0711   7.0777   7.0983   7.3897   7.3950   7.4019
     8.4467   8.4507   8.4641   8.4748   8.4851   8.4894   8.7875   8.7914
     8.8022   8.8138

          k = 0.1667 0.1667-0.5000 ( 21228 PWs)   bands (ev):

    -2.5558  -2.5362  -1.0640  -1.0581  -1.0456  -1.0330   0.3992   0.4155
     0.4282   0.4362   0.4481   0.4526   1.8779   1.8825   1.8888   1.8932
     1.9064   1.9105   3.3211   3.3296   3.3342   3.3380   3.3488   3.3594
     4.6847   4.6883   4.7037   4.7090   4.7518   4.7635   4.7656   4.7750
     4.7959   4.8041   6.1168   6.1223   6.1335   6.1492   6.2076   6.2123
     6.2175   6.2256   7.5165   7.5215   7.5351   7.5482   7.6256   7.6361
     7.8332   7.8389   7.8519   7.8597   8.9596   8.9614   8.9707   8.9772
     9.3143   9.3196

          k = 0.1667-0.5000-0.5000 ( 21296 PWs)   bands (ev):

    -2.0646  -2.0559  -2.0367  -2.0253  -0.5739  -0.5648  -0.5460  -0.5343
     0.9008   0.9099   0.9287   0.9404   2.3418   2.3527   2.3585   2.3659
     2.3736   2.3911   2.3984   2.4043   3.7803   3.7920   3.7982   3.8058
     3.8121   3.8307   3.8380   3.8432   5.1450   5.1549   5.1744   5.1872
     5.2387   5.2493   5.2552   5.2628   5.2716   5.2881   5.2963   5.3013
     6.6495   6.6542   6.6641   6.6702   8.0796   8.0847   8.0937   8.1001
     8.3828   8.3912   8.4073   8.4183   9.3422   9.3560   9.3644   9.3736
     9.3814   9.4023

          k =-0.5000-0.5000-0.5000 ( 21368 PWs)   bands (ev):

    -1.5852  -1.5785  -1.5583  -1.5528  -1.5427  -1.5288  -1.5243  -1.5037
     2.7948   2.7969   2.8076   2.8124   2.8226   2.8303   2.8317   2.8394
     2.8419   2.8469   2.8496   2.8535   2.8568   2.8602   2.8647   2.8663
     2.8725   2.8798   2.8854   2.8866   2.8936   2.9063   2.9173   2.9342
     7.0874   7.0953   7.1014   7.1058   7.1149   7.1198   7.1233   7.1255
     7.1261   7.1321   7.1417   7.1458   7.1514   7.1533   7.1550   7.1606
     7.1638   7.1704   7.1733   7.1748   7.1831   7.1879   7.2017   7.2031
    11.3184  11.3255

          k =-0.1667-0.1667 0.1667 ( 21266 PWs)   bands (ev):

    -3.0479  -1.5638  -1.5488  -1.5288  -0.0902  -0.0786  -0.0690  -0.0565
    -0.0407  -0.0353   1.3706   1.3960   1.4005   1.4072   1.4174   1.4260
     1.4428   2.8378   2.8491   2.8554   2.8642   2.8732   2.8917   4.2222
     4.2259   4.2290   4.3189   4.3227   4.3261   5.6022   5.6268   5.6309
     5.6396   5.6529   5.6647   5.7494   7.0280   7.0352   7.0430   7.0475
     7.0550   7.0595   7.0687   7.0790   7.0936   7.3917   7.3956   7.3994
     8.4489   8.4578   8.4661   8.4721   8.4774   8.4891   8.7860   8.7957
     8.8069   8.8138

          k =-0.1667 0.1667-0.1667 ( 21266 PWs)   bands (ev):

    -3.0479  -1.5678  -1.5472  -1.5262  -0.0933  -0.0815  -0.0656  -0.0546
    -0.0444  -0.0313   1.3784   1.3853   1.3973   1.4064   1.4194   1.4307
     1.4429   2.8389   2.8465   2.8527   2.8672   2.8763   2.8897   4.2194
     4.2254   4.2315   4.3161   4.3231   4.3296   5.6113   5.6157   5.6260
     5.6363   5.6567   5.6702   5.7499   7.0294   7.0334   7.0389   7.0437
     7.0580   7.0647   7.0720   7.0770   7.0928   7.3886   7.3956   7.4019
     8.4480   8.4543   8.4599   8.4776   8.4821   8.4898   8.7868   8.7935
     8.8021   8.8170

          k = 0.1667-0.1667-0.1667 ( 21266 PWs)   bands (ev):

    -3.0479  -1.5652  -1.5522  -1.5237  -0.0938  -0.0789  -0.0675  -0.0639
    -0.0524  -0.0137   1.3792   1.3840   1.3926   1.4090   1.4163   1.4242
     1.4550   2.8316   2.8468   2.8522   2.8649   2.8744   2.9013   4.2186
     4.2256   4.2322   4.3154   4.3229   4.3301   5.6088   5.6177   5.6285
     5.6398   5.6512   5.6712   5.7496   7.0218   7.0292   7.0382   7.0436
     7.0531   7.0645   7.0763   7.0832   7.0987   7.3888   7.3957   7.4036
     8.4428   8.4571   8.4618   8.4766   8.4801   8.4910   8.7888   8.7927
     8.8005   8.8167

          k =-0.1667 0.1667 0.5000 ( 21228 PWs)   bands (ev):

    -2.5558  -2.5362  -1.0687  -1.0528  -1.0493  -1.0297   0.4016   0.4115
     0.4248   0.4364   0.4469   0.4587   1.8701   1.8841   1.8901   1.8947
     1.9051   1.9152   3.3215   3.3267   3.3344   3.3418   3.3509   3.3557
     4.6808   4.6925   4.7017   4.7118   4.7519   4.7596   4.7621   4.7720
     4.7996   4.8096   6.1114   6.1286   6.1311   6.1521   6.2038   6.2134
     6.2177   6.2264   7.5149   7.5240   7.5353   7.5469   7.6253   7.6359
     7.8297   7.8427   7.8495   7.8626   8.9568   8.9644   8.9709   8.9772
     9.3126   9.3218

          k =-0.5000-0.1667 0.1667 ( 21228 PWs)   bands (ev):

    -2.5567  -2.5351  -1.0739  -1.0512  -1.0452  -1.0305   0.4042   0.4162
     0.4250   0.4362   0.4441   0.4544   1.8736   1.8815   1.8870   1.8956
     1.9082   1.9138   3.3199   3.3272   3.3361   3.3430   3.3481   3.3562
     4.6851   4.6866   4.7027   4.7135   4.7506   4.7596   4.7691   4.7783
     4.7918   4.8047   6.1063   6.1292   6.1367   6.1519   6.2056   6.2122
     6.2143   6.2285   7.5113   7.5251   7.5389   7.5465   7.6253   7.6362
     7.8330   7.8366   7.8497   7.8637   8.9556   8.9650   8.9670   8.9824
     9.3095   9.3218

          k = 0.5000-0.1667-0.1667 ( 21228 PWs)   bands (ev):

    -2.5567  -2.5351  -1.0765  -1.0513  -1.0452  -1.0274   0.3930   0.4145
     0.4229   0.4372   0.4431   0.4694   1.8757   1.8778   1.8862   1.8954
     1.9099   1.9139   3.3154   3.3231   3.3328   3.3430   3.3522   3.3644
     4.6807   4.6892   4.7021   4.7118   4.7438   4.7538   4.7698   4.7794
     4.7993   4.8127   6.1029   6.1293   6.1358   6.1534   6.2039   6.2134
     6.2187   6.2265   7.5126   7.5230   7.5315   7.5521   7.6256   7.6359
     7.8288   7.8419   7.8522   7.8630   8.9570   8.9640   8.9718   8.9778
     9.3099   9.3211

          k =-0.1667-0.5000 0.1667 ( 21228 PWs)   bands (ev):

    -2.5489  -2.5431  -1.0670  -1.0636  -1.0417  -1.0284   0.4058   0.4117
     0.4259   0.4284   0.4454   0.4638   1.8764   1.8839   1.8920   1.8950
     1.9013   1.9094   3.3186   3.3226   3.3372   3.3438   3.3507   3.3577
     4.6930   4.6947   4.6987   4.7007   4.7485   4.7521   4.7714   4.7733
     4.8027   4.8083   6.1133   6.1168   6.1395   6.1536   6.2125   6.2137
     6.2162   6.2184   7.5164   7.5275   7.5363   7.5400   7.6288   7.6324
     7.8420   7.8433   7.8489   7.8508   8.9649   8.9656   8.9693   8.9703
     9.3130   9.3244

          k =-0.1667 0.5000-0.1667 ( 21228 PWs)   bands (ev):

    -2.5489  -2.5431  -1.0695  -1.0649  -1.0374  -1.0290   0.4065   0.4142
     0.4268   0.4322   0.4436   0.4571   1.8746   1.8791   1.8923   1.9012
     1.9039   1.9076   3.3159   3.3205   3.3360   3.3423   3.3563   3.3596
     4.6911   4.6942   4.6952   4.7052   4.7466   4.7501   4.7793   4.7820
     4.7965   4.8022   6.1110   6.1164   6.1429   6.1523   6.2105   6.2130
     6.2147   6.2239   7.5193   7.5241   7.5350   7.5434   7.6286   7.6320
     7.8423   7.8427   7.8438   7.8548   8.9624   8.9638   8.9680   8.9753
     9.3164   9.3214

          k =-0.5000 0.1667 0.5000 ( 21296 PWs)   bands (ev):

    -2.0752  -2.0536  -2.0352  -2.0180  -0.5848  -0.5629  -0.5447  -0.5271
     0.8904   0.9115   0.9303   0.9475   2.3393   2.3446   2.3559   2.3745
     2.3823   2.3852   2.3953   2.4110   3.7780   3.7828   3.7947   3.8135
     3.8220   3.8236   3.8343   3.8497   5.1338   5.1563   5.1766   5.1944
     5.2354   5.2418   5.2522   5.2712   5.2787   5.2835   5.2924   5.3087
     6.6448   6.6548   6.6655   6.6736   8.0738   8.0852   8.0942   8.1037
     8.3734   8.3935   8.4078   8.4248   9.3422   9.3479   9.3599   9.3827
     9.3902   9.3957

          k =-0.5000 0.5000 0.1667 ( 21296 PWs)   bands (ev):

    -2.0632  -2.0532  -2.0345  -2.0319  -0.5721  -0.5622  -0.5430  -0.5413
     0.9021   0.9120   0.9314   0.9336   2.3434   2.3536   2.3582   2.3703
     2.3762   2.3891   2.3960   2.4004   3.7820   3.7929   3.7970   3.8094
     3.8148   3.8276   3.8360   3.8397   5.1465   5.1575   5.1770   5.1790
     5.2409   5.2499   5.2560   5.2670   5.2735   5.2866   5.2920   5.2980
     6.6511   6.6563   6.6656   6.6669   8.0797   8.0852   8.0954   8.0967
     8.3839   8.3929   8.4108   8.4124   9.3449   9.3575   9.3624   9.3769
     9.3833   9.4024

     the Fermi energy is     7.8058 ev

!    total energy              =   -1264.06423730 Ry
     Harris-Foulkes estimate   =   -1264.06423735 Ry
     estimated scf accuracy    <       0.00000004 Ry

     total all-electron energy =    -15540.633214 Ry

     The total energy is the sum of the following terms:

     one-electron contribution =     101.17224789 Ry
     hartree contribution      =       0.21043684 Ry
     xc contribution           =     -82.90467796 Ry
     ewald contribution        =    -172.86659945 Ry
     one-center paw contrib.   =   -1109.67844255 Ry
     smearing contrib. (-TS)   =       0.00279793 Ry

     convergence has been achieved in  11 iterations

     Forces acting on atoms (cartesian axes, Ry/au):

     atom    1 type  1   force =    -0.00003949   -0.00000992    0.00016723
     atom    2 type  1   force =    -0.00075873    0.00166462    0.00062853
     atom    3 type  1   force =     0.00180941   -0.00014348   -0.00418913
     atom    4 type  1   force =    -0.00023683   -0.00131448   -0.00270220
     atom    5 type  1   force =    -0.00353470   -0.00309711    0.00255008
     atom    6 type  1   force =    -0.00112189    0.00349676   -0.00004927
     atom    7 type  1   force =    -0.00110225   -0.00419241    0.00264102
     atom    8 type  1   force =     0.00027311   -0.00060863   -0.00205024
     atom    9 type  1   force =     0.00004962   -0.00061818    0.00101002
     atom   10 type  1   force =    -0.00128630   -0.00059974   -0.00507393
     atom   11 type  1   force =    -0.00195587   -0.00208454   -0.00317849
     atom   12 type  1   force =    -0.00069119    0.00030878   -0.00054863
     atom   13 type  1   force =    -0.00139954   -0.00269081   -0.00029476
     atom   14 type  1   force =    -0.00017684    0.00124358    0.00334907
     atom   15 type  1   force =    -0.00421508    0.00237662    0.00401707
     atom   16 type  1   force =     0.00481641    0.00399030    0.00105209
     atom   17 type  1   force =    -0.00346526    0.00035300    0.00071952
     atom   18 type  1   force =     0.00154322   -0.00044494    0.00343327
     atom   19 type  1   force =     0.00405387    0.00181613   -0.00067675
     atom   20 type  1   force =     0.00060329    0.00161790    0.00051696
     atom   21 type  1   force =     0.00155272   -0.00436607    0.00086971
     atom   22 type  1   force =    -0.00104255    0.00455921    0.00101809
     atom   23 type  1   force =     0.00092637   -0.00076222   -0.00165156
     atom   24 type  1   force =     0.00099667    0.00105901   -0.00069318
     atom   25 type  1   force =     0.00075776   -0.00140225    0.00269294
     atom   26 type  1   force =     0.00246250   -0.00179307   -0.00198091
     atom   27 type  1   force =    -0.00132383    0.00019183    0.00087202
     atom   28 type  1   force =    -0.00075122    0.00194121   -0.00057404
     atom   29 type  1   force =     0.00665124   -0.00273588   -0.00085932
     atom   30 type  1   force =    -0.00206996    0.00035330    0.00194642
     atom   31 type  1   force =    -0.00070293   -0.00045508   -0.00275565
     atom   32 type  1   force =    -0.00062173    0.00234654   -0.00020598

     Total force =     0.021536     Total SCF correction =     0.000247


     Computing stress (Cartesian axis) and pressure

          total   stress  (Ry/bohr**3)                   (kbar)     P=   -1.39
  -0.00000936  -0.00000009  -0.00000008         -1.38     -0.01     -0.01
  -0.00000009  -0.00000937   0.00000010         -0.01     -1.38      0.01
  -0.00000008   0.00000010  -0.00000957         -0.01      0.01     -1.41


     Writing output data file RlLckEmHImHvsLsA.save/

     init_run     :     32.23s CPU     32.55s WALL (       1 calls)
     electrons    :    464.62s CPU    473.56s WALL (       1 calls)
     forces       :     12.94s CPU     13.02s WALL (       1 calls)
     stress       :     16.56s CPU     16.58s WALL (       1 calls)

     Called by init_run:
     wfcinit      :     31.55s CPU     31.85s WALL (       1 calls)
     potinit      :      0.32s CPU      0.33s WALL (       1 calls)
     hinit0       :      0.15s CPU      0.15s WALL (       1 calls)

     Called by electrons:
     c_bands      :    411.47s CPU    419.50s WALL (      12 calls)
     sum_band     :     47.69s CPU     48.37s WALL (      12 calls)
     v_of_rho     :      0.63s CPU      0.66s WALL (      12 calls)
     newd         :      1.88s CPU      1.95s WALL (      12 calls)
     PAW_pot      :      3.26s CPU      3.26s WALL (      12 calls)
     mix_rho      :      0.14s CPU      0.15s WALL (      12 calls)

     Called by c_bands:
     init_us_2    :      2.64s CPU      2.74s WALL (     378 calls)
     cegterg      :    406.81s CPU    412.35s WALL (     168 calls)

     Called by sum_band:
     sum_band:bec :      0.04s CPU      0.04s WALL (     168 calls)
     addusdens    :      1.80s CPU      2.00s WALL (      12 calls)

     Called by *egterg:
     h_psi        :    238.92s CPU    242.61s WALL (     632 calls)
     s_psi        :     93.70s CPU     94.26s WALL (     632 calls)
     g_psi        :      0.30s CPU      0.30s WALL (     450 calls)
     cdiaghg      :      5.38s CPU      5.39s WALL (     604 calls)

     Called by h_psi:
     h_psi:pot    :    238.34s CPU    241.61s WALL (     632 calls)
     h_psi:calbec :     98.26s CPU     98.72s WALL (     632 calls)
     vloc_psi     :     43.99s CPU     46.47s WALL (     632 calls)
     add_vuspsi   :     96.09s CPU     96.41s WALL (     632 calls)

     General routines
     calbec       :    148.40s CPU    149.02s WALL (     870 calls)
     fft          :      0.32s CPU      0.34s WALL (     158 calls)
     ffts         :      0.02s CPU      0.02s WALL (      12 calls)
     fftw         :     47.73s CPU     50.32s WALL (   62714 calls)

     Parallel routines
     fft_scatt_xy :      6.12s CPU      6.45s WALL (   62884 calls)
     fft_scatt_yz :     16.30s CPU     17.26s WALL (   62884 calls)

     PWSCF        :   8m46.80s CPU   8m56.53s WALL


   This run was terminated on:   1:45:13  19Jul2021            

=------------------------------------------------------------------------------=
   JOB DONE.
=------------------------------------------------------------------------------=
