
     Program PWSCF v.6.4.1 starts on 19Jul2021 at  6:21:27 

     This program is part of the open-source Quantum ESPRESSO suite
     for quantum simulation of materials; please cite
         "P. Giannozzi et al., J. Phys.:Condens. Matter 21 395502 (2009);
         "P. Giannozzi et al., J. Phys.:Condens. Matter 29 465901 (2017);
          URL http://www.quantum-espresso.org", 
     in publications or presentations arising from this work. More details at
     http://www.quantum-espresso.org/quote

     Parallel version (MPI), running on     4 processors

     MPI processes distributed on     1 nodes
     R & G space division:  proc/nbgrp/npool/nimage =       4
     Reading input from /cloud/Code/python/qeforfit/examples/al/01/wd/configs/17/config_0002.in
Warning: card &IONS ignored
Warning: card ION_DYNAMICS = 'BFGS', ignored
Warning: card / ignored
Warning: card &CELL ignored
Warning: card CELL_DYNAMICS = 'BFGS', ignored
Warning: card CELL_FACTOR = 2.0, ignored
Warning: card PRESS = 0.0, ignored
Warning: card / ignored

     Current dimensions of program PWSCF are:
     Max number of different atomic species (ntypx) = 10
     Max number of k-points (npk) =  40000
     Max angular momentum in pseudopotentials (lmaxx) =  3
               file Al.pbe-nl-kjpaw_psl.1.0.0.UPF: wavefunction(s)  3S 3P renormalized

     Subspace diagonalization in iterative solution of the eigenvalue problem:
     a serial algorithm will be used


     Parallelization info
     --------------------
     sticks:   dense  smooth     PW     G-vecs:    dense   smooth      PW
     Min         926     926    257                42448    42448    6143
     Max         927     927    259                42453    42453    6144
     Sum        3705    3705   1033               169797   169797   24573



     bravais-lattice index     =            0
     lattice parameter (alat)  =      15.2673  a.u.
     unit-cell volume          =    3558.6481 (a.u.)^3
     number of atoms/cell      =           32
     number of atomic types    =            1
     number of electrons       =        96.00
     number of Kohn-Sham states=           58
     kinetic-energy cutoff     =      50.0000  Ry
     charge density cutoff     =     200.0000  Ry
     convergence threshold     =      1.0E-06
     mixing beta               =       0.1000
     number of iterations used =           10  TF        mixing
     Exchange-correlation      = SLA PW PBX PBC ( 1  4  3  4 0 0)

     celldm(1)=  15.267280  celldm(2)=   0.000000  celldm(3)=   0.000000
     celldm(4)=   0.000000  celldm(5)=   0.000000  celldm(6)=   0.000000

     crystal axes: (cart. coord. in units of alat)
               a(1) = (   1.000000   0.000000   0.000000 )  
               a(2) = (   0.000000   1.000000   0.000000 )  
               a(3) = (   0.000000   0.000000   1.000000 )  

     reciprocal axes: (cart. coord. in units 2 pi/alat)
               b(1) = (  1.000000  0.000000  0.000000 )  
               b(2) = (  0.000000  1.000000  0.000000 )  
               b(3) = (  0.000000  0.000000  1.000000 )  


     PseudoPot. # 1 for Al read from file:
     /opt/pp/Al.pbe-nl-kjpaw_psl.1.0.0.UPF
     MD5 check sum: 1b67f78b73fe58c7924490f171ce8a1e
     Pseudo is Projector augmented-wave + core cor, Zval =  3.0
     Generated using "atomic" code by A. Dal Corso v.6.3
     Shape of augmentation charge: PSQ
     Using radial grid of 1135 points,  4 beta functions with: 
                l(1) =   0
                l(2) =   0
                l(3) =   1
                l(4) =   1
     Q(r) pseudized with 0 coefficients 


     atomic species   valence    mass     pseudopotential
        Al             3.00    26.98200     Al( 1.00)

     No symmetry found



   Cartesian axes

     site n.     atom                  positions (alat units)
         1           Al  tau(   1) = (  -0.0072037  -0.0063597  -0.0051889  )
         2           Al  tau(   2) = (   0.2450424   0.2396495  -0.0051432  )
         3           Al  tau(   3) = (   0.2415923  -0.0059399   0.2493614  )
         4           Al  tau(   4) = (  -0.0069501   0.2478253   0.2471248  )
         5           Al  tau(   5) = (  -0.0014325  -0.0015063   0.4910692  )
         6           Al  tau(   6) = (   0.2458391   0.2401008   0.4935218  )
         7           Al  tau(   7) = (   0.2440059  -0.0034715   0.7412101  )
         8           Al  tau(   8) = (  -0.0054513   0.2457233   0.7476534  )
         9           Al  tau(   9) = (  -0.0017996   0.4956065  -0.0068588  )
        10           Al  tau(  10) = (   0.2462428   0.7469752   0.0015594  )
        11           Al  tau(  11) = (   0.2472329   0.4956276   0.2484723  )
        12           Al  tau(  12) = (  -0.0057830   0.7443612   0.2439569  )
        13           Al  tau(  13) = (  -0.0043463   0.4965741   0.4954308  )
        14           Al  tau(  14) = (   0.2427306   0.7447153   0.4908622  )
        15           Al  tau(  15) = (   0.2501831   0.4892363   0.7373689  )
        16           Al  tau(  16) = (  -0.0131117   0.7375588   0.7433130  )
        17           Al  tau(  17) = (   0.4975248  -0.0085586  -0.0073247  )
        18           Al  tau(  18) = (   0.7416964   0.2453320  -0.0112142  )
        19           Al  tau(  19) = (   0.7361560  -0.0084683   0.2449929  )
        20           Al  tau(  20) = (   0.4929529   0.2426772   0.2400834  )
        21           Al  tau(  21) = (   0.4918721  -0.0006900   0.4929016  )
        22           Al  tau(  22) = (   0.7448176   0.2373652   0.4924954  )
        23           Al  tau(  23) = (   0.7441651  -0.0079233   0.7439634  )
        24           Al  tau(  24) = (   0.4936779   0.2411774   0.7433467  )
        25           Al  tau(  25) = (   0.4905010   0.4957627  -0.0109358  )
        26           Al  tau(  26) = (   0.7388954   0.7454069  -0.0010759  )
        27           Al  tau(  27) = (   0.7454645   0.4894848   0.2423734  )
        28           Al  tau(  28) = (   0.4952058   0.7392650   0.2476362  )
        29           Al  tau(  29) = (   0.4869706   0.4955043   0.4942584  )
        30           Al  tau(  30) = (   0.7467663   0.7431945   0.4905424  )
        31           Al  tau(  31) = (   0.7423928   0.4936393   0.7462377  )
        32           Al  tau(  32) = (   0.4937340   0.7424225   0.7418038  )

     number of k points=    14  Marzari-Vanderbilt smearing, width (Ry)=  0.0200
                       cart. coord. in units 2pi/alat
        k(    1) = (   0.1666667   0.1666667   0.1666667), wk =   0.1481481
        k(    2) = (   0.1666667   0.1666667  -0.5000000), wk =   0.1481481
        k(    3) = (   0.1666667  -0.5000000  -0.5000000), wk =   0.1481481
        k(    4) = (  -0.5000000  -0.5000000  -0.5000000), wk =   0.0740741
        k(    5) = (  -0.1666667  -0.1666667   0.1666667), wk =   0.1481481
        k(    6) = (  -0.1666667   0.1666667  -0.1666667), wk =   0.1481481
        k(    7) = (   0.1666667  -0.1666667  -0.1666667), wk =   0.1481481
        k(    8) = (  -0.1666667   0.1666667   0.5000000), wk =   0.1481481
        k(    9) = (  -0.5000000  -0.1666667   0.1666667), wk =   0.1481481
        k(   10) = (   0.5000000  -0.1666667  -0.1666667), wk =   0.1481481
        k(   11) = (  -0.1666667  -0.5000000   0.1666667), wk =   0.1481481
        k(   12) = (  -0.1666667   0.5000000  -0.1666667), wk =   0.1481481
        k(   13) = (  -0.5000000   0.1666667   0.5000000), wk =   0.1481481
        k(   14) = (  -0.5000000   0.5000000   0.1666667), wk =   0.1481481

     Dense  grid:   169797 G-vectors     FFT dimensions: (  72,  72,  72)

     Estimated max dynamical RAM per process >     207.78 MB

     Estimated total dynamical RAM >     831.14 MB

     Initial potential from superposition of free atoms

     starting charge   95.92671, renormalised to   96.00000
     Starting wfcs are  128 randomized atomic wfcs
     Checking if some PAW data can be deallocated... 

     total cpu time spent up to now is       28.5 secs

     Self-consistent Calculation

     iteration #  1     ecut=    50.00 Ry     beta= 0.10
     Davidson diagonalization with overlap
     ethr =  1.00E-02,  avg # of iterations =  3.0

     Threshold (ethr) on eigenvalues was too large:
     Diagonalizing with lowered threshold

     Davidson diagonalization with overlap
     ethr =  2.04E-04,  avg # of iterations =  3.6

     total cpu time spent up to now is      111.2 secs

     total energy              =   -1264.10023106 Ry
     Harris-Foulkes estimate   =   -1264.10691753 Ry
     estimated scf accuracy    <       0.19415412 Ry

     iteration #  2     ecut=    50.00 Ry     beta= 0.10
     Davidson diagonalization with overlap
     ethr =  2.02E-04,  avg # of iterations =  1.0

     total cpu time spent up to now is      137.9 secs

     total energy              =   -1264.04796431 Ry
     Harris-Foulkes estimate   =   -1264.10111838 Ry
     estimated scf accuracy    <       0.16885467 Ry

     iteration #  3     ecut=    50.00 Ry     beta= 0.10
     Davidson diagonalization with overlap
     ethr =  1.76E-04,  avg # of iterations =  1.0

     total cpu time spent up to now is      164.4 secs

     total energy              =   -1264.05335811 Ry
     Harris-Foulkes estimate   =   -1264.05339258 Ry
     estimated scf accuracy    <       0.00079850 Ry

     iteration #  4     ecut=    50.00 Ry     beta= 0.10
     Davidson diagonalization with overlap
     c_bands:  2 eigenvalues not converged
     ethr =  8.32E-07,  avg # of iterations =  6.6

     total cpu time spent up to now is      233.6 secs

     total energy              =   -1264.05507745 Ry
     Harris-Foulkes estimate   =   -1264.05506756 Ry
     estimated scf accuracy    <       0.00213768 Ry

     iteration #  5     ecut=    50.00 Ry     beta= 0.10
     Davidson diagonalization with overlap
     ethr =  8.32E-07,  avg # of iterations =  1.0

     total cpu time spent up to now is      260.1 secs

     total energy              =   -1264.05432460 Ry
     Harris-Foulkes estimate   =   -1264.05507904 Ry
     estimated scf accuracy    <       0.00217523 Ry

     iteration #  6     ecut=    50.00 Ry     beta= 0.10
     Davidson diagonalization with overlap
     ethr =  8.32E-07,  avg # of iterations =  4.6

     total cpu time spent up to now is      297.6 secs

     total energy              =   -1264.05451916 Ry
     Harris-Foulkes estimate   =   -1264.05460326 Ry
     estimated scf accuracy    <       0.00029516 Ry

     iteration #  7     ecut=    50.00 Ry     beta= 0.10
     Davidson diagonalization with overlap
     ethr =  3.07E-07,  avg # of iterations =  6.4

     total cpu time spent up to now is      350.1 secs

     total energy              =   -1264.05397944 Ry
     Harris-Foulkes estimate   =   -1264.05478356 Ry
     estimated scf accuracy    <       0.00246453 Ry

     iteration #  8     ecut=    50.00 Ry     beta= 0.10
     Davidson diagonalization with overlap
     ethr =  3.07E-07,  avg # of iterations =  4.1

     total cpu time spent up to now is      399.1 secs

     total energy              =   -1264.05442512 Ry
     Harris-Foulkes estimate   =   -1264.05445151 Ry
     estimated scf accuracy    <       0.00018734 Ry

     iteration #  9     ecut=    50.00 Ry     beta= 0.10
     Davidson diagonalization with overlap
     ethr =  1.95E-07,  avg # of iterations =  1.0

     total cpu time spent up to now is      425.2 secs

     total energy              =   -1264.05440451 Ry
     Harris-Foulkes estimate   =   -1264.05443308 Ry
     estimated scf accuracy    <       0.00004812 Ry

     iteration # 10     ecut=    50.00 Ry     beta= 0.10
     Davidson diagonalization with overlap
     ethr =  5.01E-08,  avg # of iterations =  3.9

     total cpu time spent up to now is      471.9 secs

     total energy              =   -1264.05441446 Ry
     Harris-Foulkes estimate   =   -1264.05444615 Ry
     estimated scf accuracy    <       0.00013203 Ry

     iteration # 11     ecut=    50.00 Ry     beta= 0.10
     Davidson diagonalization with overlap
     ethr =  5.01E-08,  avg # of iterations =  2.7

     total cpu time spent up to now is      505.4 secs

     total energy              =   -1264.05442598 Ry
     Harris-Foulkes estimate   =   -1264.05442617 Ry
     estimated scf accuracy    <       0.00000340 Ry

     iteration # 12     ecut=    50.00 Ry     beta= 0.10
     Davidson diagonalization with overlap
     ethr =  3.54E-09,  avg # of iterations =  3.0

     total cpu time spent up to now is      536.3 secs

     total energy              =   -1264.05442616 Ry
     Harris-Foulkes estimate   =   -1264.05442637 Ry
     estimated scf accuracy    <       0.00000190 Ry

     iteration # 13     ecut=    50.00 Ry     beta= 0.10
     Davidson diagonalization with overlap
     ethr =  1.97E-09,  avg # of iterations =  2.6

     total cpu time spent up to now is      563.4 secs

     End of self-consistent calculation

          k = 0.1667 0.1667 0.1667 ( 21218 PWs)   bands (ev):

    -3.0471  -1.5969  -1.5485  -1.4886  -0.1330  -0.1136  -0.0733  -0.0456
    -0.0222   0.0476   1.3299   1.3586   1.4002   1.4270   1.4428   1.4592
     1.5001   2.7909   2.8398   2.8634   2.8856   2.9058   2.9512   4.2188
     4.2316   4.2474   4.3239   4.3408   4.3534   5.5830   5.5889   5.6492
     5.6623   5.6907   5.7120   5.7673   6.9908   7.0045   7.0189   7.0583
     7.0720   7.0881   7.1049   7.1234   7.1665   7.3994   7.4090   7.4289
     8.4305   8.4386   8.4728   8.4973   8.5225   8.5355   8.7752   8.7861
     8.8094   8.8398

          k = 0.1667 0.1667-0.5000 ( 21228 PWs)   bands (ev):

    -2.5702  -2.5200  -1.0821  -1.0676  -1.0338  -1.0046   0.3577   0.3995
     0.4319   0.4520   0.4814   0.4921   1.8660   1.8729   1.8933   1.9045
     1.9348   1.9450   3.3053   3.3264   3.3387   3.3489   3.3747   3.3995
     4.6699   4.6783   4.7103   4.7225   4.7534   4.7757   4.7806   4.8057
     4.8211   4.8428   6.1077   6.1206   6.1430   6.1864   6.2166   6.2285
     6.2396   6.2603   7.5065   7.5208   7.5543   7.5865   7.6343   7.6599
     7.8305   7.8486   7.8791   7.8975   8.9642   8.9687   8.9902   9.0079
     9.3144   9.3246

          k = 0.1667-0.5000-0.5000 ( 21296 PWs)   bands (ev):

    -2.0909  -2.0710  -2.0201  -1.9940  -0.5978  -0.5750  -0.5269  -0.4990
     0.8791   0.9019   0.9492   0.9770   2.3043   2.3306   2.3436   2.3632
     2.3839   2.4269   2.4437   2.4608   3.7432   3.7728   3.7878   3.8068
     3.8226   3.8687   3.8865   3.8994   5.1262   5.1513   5.1957   5.2048
     5.2281   5.2341   5.2501   5.2693   5.2897   5.3300   5.3491   5.3622
     6.6488   6.6609   6.6863   6.7010   8.0793   8.0932   8.1145   8.1302
     8.3728   8.3945   8.4347   8.4621   9.3008   9.3349   9.3555   9.3777
     9.3977   9.4423

          k =-0.5000-0.5000-0.5000 ( 21368 PWs)   bands (ev):

    -1.6400  -1.6230  -1.5710  -1.5572  -1.5325  -1.4979  -1.4875  -1.4365
     2.7124   2.7170   2.7448   2.7566   2.7821   2.8015   2.8050   2.8251
     2.8309   2.8430   2.8507   2.8599   2.8676   2.8771   2.8868   2.8917
     2.9067   2.9254   2.9392   2.9417   2.9592   2.9918   3.0185   3.0609
     7.0147   7.0343   7.0501   7.0617   7.0833   7.0969   7.1048   7.1102
     7.1120   7.1268   7.1509   7.1609   7.1749   7.1805   7.1851   7.1982
     7.2057   7.2235   7.2291   7.2339   7.2548   7.2656   7.3003   7.3035
    11.2895  11.2961

          k =-0.1667-0.1667 0.1667 ( 21218 PWs)   bands (ev):

    -3.0472  -1.5859  -1.5501  -1.4999  -0.1282  -0.0981  -0.0741  -0.0432
    -0.0049   0.0087   1.3224   1.3849   1.3972   1.4138   1.4380   1.4607
     1.5011   2.8130   2.8409   2.8570   2.8789   2.9012   2.9460   4.2269
     4.2374   4.2442   4.3274   4.3364   4.3434   5.5635   5.6248   5.6348
     5.6576   5.6882   5.7189   5.7644   7.0019   7.0159   7.0360   7.0480
     7.0699   7.0782   7.1006   7.1219   7.1564   7.4026   7.4127   7.4230
     8.4358   8.4567   8.4782   8.4920   8.5046   8.5350   8.7704   8.7943
     8.8154   8.8364

          k =-0.1667 0.1667-0.1667 ( 21218 PWs)   bands (ev):

    -3.0471  -1.5959  -1.5458  -1.4931  -0.1351  -0.1061  -0.0662  -0.0381
    -0.0145   0.0194   1.3412   1.3591   1.3884   1.4115   1.4428   1.4719
     1.5035   2.8139   2.8347   2.8505   2.8875   2.9089   2.9414   4.2196
     4.2343   4.2496   4.3208   4.3386   4.3545   5.5847   5.5965   5.6226
     5.6485   5.6964   5.7326   5.7688   7.0061   7.0105   7.0278   7.0435
     7.0687   7.0922   7.1071   7.1231   7.1521   7.3939   7.4134   7.4278
     8.4324   8.4483   8.4612   8.5085   8.5170   8.5362   8.7691   8.7910
     8.8106   8.8398

          k = 0.1667-0.1667-0.1667 ( 21218 PWs)   bands (ev):

    -3.0472  -1.5893  -1.5572  -1.4878  -0.1376  -0.0980  -0.0700  -0.0610
    -0.0328   0.0611   1.3437   1.3561   1.3776   1.4174   1.4358   1.4565
     1.5302   2.7974   2.8359   2.8485   2.8803   2.9040   2.9701   4.2169
     4.2358   4.2514   4.3194   4.3375   4.3546   5.5805   5.6022   5.6282
     5.6562   5.6851   5.7358   5.7662   6.9829   6.9992   7.0265   7.0414
     7.0644   7.0870   7.1184   7.1356   7.1664   7.3978   7.4133   7.4356
     8.4192   8.4550   8.4663   8.5010   8.5105   8.5377   8.7782   8.7881
     8.8029   8.8384

          k =-0.1667 0.1667 0.5000 ( 21228 PWs)   bands (ev):

    -2.5702  -2.5200  -1.0928  -1.0551  -1.0431  -0.9964   0.3641   0.3909
     0.4233   0.4520   0.4771   0.5069   1.8454   1.8808   1.8954   1.9070
     1.9307   1.9576   3.3068   3.3190   3.3396   3.3573   3.3799   3.3910
     4.6579   4.6905   4.7113   4.7331   4.7473   4.7631   4.7705   4.7873
     4.8379   4.8616   6.0937   6.1361   6.1423   6.1887   6.2084   6.2329
     6.2394   6.2600   7.5016   7.5267   7.5541   7.5832   7.6327   7.6592
     7.8254   7.8566   7.8723   7.9068   8.9573   8.9762   8.9925   9.0075
     9.3090   9.3300

          k =-0.5000-0.1667 0.1667 ( 21228 PWs)   bands (ev):

    -2.5726  -2.5170  -1.1065  -1.0498  -1.0345  -0.9983   0.3704   0.4012
     0.4239   0.4517   0.4722   0.4959   1.8533   1.8732   1.8877   1.9111
     1.9404   1.9522   3.3017   3.3207   3.3433   3.3597   3.3721   3.3918
     4.6722   4.6768   4.7155   4.7338   4.7441   4.7712   4.7867   4.8080
     4.8123   4.8428   6.0813   6.1375   6.1575   6.1923   6.2088   6.2273
     6.2323   6.2648   7.4945   7.5305   7.5640   7.5821   7.6346   7.6581
     7.8311   7.8401   7.8736   7.9078   8.9546   8.9792   8.9820   9.0220
     9.3003   9.3334

          k = 0.5000-0.1667-0.1667 ( 21228 PWs)   bands (ev):

    -2.5726  -2.5170  -1.1123  -1.0492  -1.0356  -0.9901   0.3432   0.3975
     0.4190   0.4558   0.4674   0.5339   1.8571   1.8654   1.8883   1.9064
     1.9417   1.9549   3.2918   3.3106   3.3339   3.3605   3.3834   3.4126
     4.6571   4.6755   4.7089   4.7216   4.7383   4.7622   4.7807   4.8119
     4.8391   4.8714   6.0710   6.1379   6.1536   6.1867   6.2100   6.2289
     6.2450   6.2635   7.4960   7.5228   7.5423   7.5926   7.6374   7.6570
     7.8206   7.8567   7.8831   7.9088   8.9598   8.9766   8.9947   9.0104
     9.3020   9.3285

          k =-0.1667-0.5000 0.1667 ( 21228 PWs)   bands (ev):

    -2.5523  -2.5381  -1.0889  -1.0800  -1.0259  -0.9942   0.3770   0.3915
     0.4264   0.4331   0.4729   0.5203   1.8628   1.8809   1.8960   1.9044
     1.9210   1.9434   3.2994   3.3105   3.3439   3.3595   3.3806   3.3967
     4.6855   4.6970   4.6993   4.7128   4.7404   4.7557   4.7842   4.7884
     4.8463   4.8622   6.0982   6.1076   6.1625   6.1961   6.2242   6.2300
     6.2337   6.2454   7.5070   7.5341   7.5552   7.5631   7.6415   7.6506
     7.8527   7.8583   7.8711   7.8814   8.9778   8.9803   8.9881   8.9921
     9.3106   9.3388

          k =-0.1667 0.5000-0.1667 ( 21228 PWs)   bands (ev):

    -2.5522  -2.5381  -1.0951  -1.0841  -1.0139  -0.9953   0.3780   0.3967
     0.4279   0.4407   0.4709   0.5040   1.8585   1.8681   1.8962   1.9226
     1.9292   1.9387   3.2926   3.3045   3.3404   3.3565   3.3934   3.4026
     4.6791   4.6918   4.6990   4.7219   4.7369   4.7465   4.7983   4.8179
     4.8255   4.8493   6.0934   6.1085   6.1692   6.1896   6.2221   6.2262
     6.2349   6.2589   7.5156   7.5263   7.5547   7.5743   7.6401   7.6477
     7.8536   7.8571   7.8589   7.8857   8.9703   8.9748   8.9860   9.0040
     9.3188   9.3335

          k =-0.5000 0.1667 0.5000 ( 21296 PWs)   bands (ev):

    -2.1183  -2.0620  -2.0172  -1.9741  -0.6276  -0.5695  -0.5261  -0.4805
     0.8534   0.9059   0.9524   0.9954   2.2974   2.3114   2.3395   2.3859
     2.4053   2.4123   2.4382   2.4773   3.7364   3.7473   3.7778   3.8259
     3.8473   3.8500   3.8767   3.9155   5.0969   5.1543   5.1944   5.2022
     5.2182   5.2410   5.2498   5.2882   5.3077   5.3192   5.3403   5.3812
     6.6388   6.6623   6.6899   6.7096   8.0643   8.0912   8.1154   8.1387
     8.3494   8.4005   8.4343   8.4790   9.3004   9.3154   9.3453   9.3983
     9.4146   9.4266

          k =-0.5000 0.5000 0.1667 ( 21296 PWs)   bands (ev):

    -2.0879  -2.0633  -2.0175  -2.0089  -0.5923  -0.5684  -0.5200  -0.5157
     0.8816   0.9049   0.9549   0.9616   2.3085   2.3334   2.3443   2.3750
     2.3906   2.4220   2.4389   2.4504   3.7467   3.7747   3.7846   3.8147
     3.8286   3.8600   3.8825   3.8908   5.1285   5.1548   5.1975   5.2042
     5.2245   5.2349   5.2500   5.2788   5.2944   5.3248   5.3393   5.3551
     6.6545   6.6680   6.6902   6.6950   8.0782   8.0923   8.1180   8.1215
     8.3763   8.3983   8.4443   8.4473   9.3082   9.3377   9.3506   9.3831
     9.4026   9.4382

     the Fermi energy is     7.8216 ev

!    total energy              =   -1264.05442580 Ry
     Harris-Foulkes estimate   =   -1264.05442628 Ry
     estimated scf accuracy    <       0.00000053 Ry

     total all-electron energy =    -15540.623403 Ry

     The total energy is the sum of the following terms:

     one-electron contribution =     101.21397160 Ry
     hartree contribution      =       0.25468754 Ry
     xc contribution           =     -82.94415493 Ry
     ewald contribution        =    -172.89335008 Ry
     one-center paw contrib.   =   -1109.68908906 Ry
     smearing contrib. (-TS)   =       0.00350912 Ry

     convergence has been achieved in  13 iterations

     Forces acting on atoms (cartesian axes, Ry/au):

     atom    1 type  1   force =    -0.00013172   -0.00007859    0.00035781
     atom    2 type  1   force =    -0.00192944    0.00398052    0.00143139
     atom    3 type  1   force =     0.00464620   -0.00025027   -0.01097513
     atom    4 type  1   force =     0.00005721   -0.00317215   -0.00667180
     atom    5 type  1   force =    -0.00932204   -0.00778515    0.00654922
     atom    6 type  1   force =    -0.00272853    0.00939448   -0.00022244
     atom    7 type  1   force =    -0.00254469   -0.01021735    0.00667110
     atom    8 type  1   force =     0.00078057   -0.00152251   -0.00518570
     atom    9 type  1   force =     0.00022809   -0.00159934    0.00270400
     atom   10 type  1   force =    -0.00297937   -0.00115056   -0.01179366
     atom   11 type  1   force =    -0.00532498   -0.00538899   -0.00831169
     atom   12 type  1   force =    -0.00175931    0.00075833   -0.00141578
     atom   13 type  1   force =    -0.00328661   -0.00676851   -0.00092317
     atom   14 type  1   force =    -0.00041848    0.00310037    0.00853903
     atom   15 type  1   force =    -0.01127429    0.00534043    0.01009784
     atom   16 type  1   force =     0.01152091    0.01017989    0.00267292
     atom   17 type  1   force =    -0.00879732    0.00129482    0.00143187
     atom   18 type  1   force =     0.00365945   -0.00124828    0.00856711
     atom   19 type  1   force =     0.01000347    0.00430392   -0.00151795
     atom   20 type  1   force =     0.00146759    0.00400887    0.00133177
     atom   21 type  1   force =     0.00393538   -0.01113101    0.00212477
     atom   22 type  1   force =    -0.00232951    0.01101644    0.00256016
     atom   23 type  1   force =     0.00232722   -0.00186849   -0.00400936
     atom   24 type  1   force =     0.00250497    0.00261478   -0.00164713
     atom   25 type  1   force =     0.00168675   -0.00349405    0.00681543
     atom   26 type  1   force =     0.00643837   -0.00472397   -0.00507272
     atom   27 type  1   force =    -0.00337764    0.00079213    0.00209572
     atom   28 type  1   force =    -0.00175253    0.00479997   -0.00144812
     atom   29 type  1   force =     0.01714559   -0.00670632   -0.00235631
     atom   30 type  1   force =    -0.00512700    0.00080687    0.00485204
     atom   31 type  1   force =    -0.00182689   -0.00119840   -0.00676623
     atom   32 type  1   force =    -0.00149143    0.00591214   -0.00048499

     Total force =     0.054124     Total SCF correction =     0.000984


     Computing stress (Cartesian axis) and pressure

          total   stress  (Ry/bohr**3)                   (kbar)     P=    1.33
   0.00000956  -0.00000054  -0.00000060          1.41     -0.08     -0.09
  -0.00000054   0.00000928   0.00000052         -0.08      1.37      0.08
  -0.00000060   0.00000052   0.00000838         -0.09      0.08      1.23


     Writing output data file ApLlHtDAZiCfvjHs.save/

     init_run     :     27.86s CPU     28.13s WALL (       1 calls)
     electrons    :    527.27s CPU    534.93s WALL (       1 calls)
     forces       :     12.20s CPU     12.23s WALL (       1 calls)
     stress       :     15.08s CPU     15.08s WALL (       1 calls)

     Called by init_run:
     wfcinit      :     27.24s CPU     27.47s WALL (       1 calls)
     potinit      :      0.31s CPU      0.32s WALL (       1 calls)
     hinit0       :      0.14s CPU      0.14s WALL (       1 calls)

     Called by electrons:
     c_bands      :    472.01s CPU    478.90s WALL (      14 calls)
     sum_band     :     49.29s CPU     50.00s WALL (      14 calls)
     v_of_rho     :      0.65s CPU      0.68s WALL (      14 calls)
     newd         :      1.99s CPU      2.03s WALL (      14 calls)
     PAW_pot      :      3.53s CPU      3.53s WALL (      14 calls)
     mix_rho      :      0.19s CPU      0.19s WALL (      14 calls)

     Called by c_bands:
     init_us_2    :      2.74s CPU      2.80s WALL (     434 calls)
     cegterg      :    466.85s CPU    473.32s WALL (     196 calls)

     Called by sum_band:
     sum_band:bec :      0.04s CPU      0.04s WALL (     196 calls)
     addusdens    :      1.83s CPU      2.06s WALL (      14 calls)

     Called by *egterg:
     h_psi        :    266.41s CPU    270.53s WALL (     832 calls)
     s_psi        :    105.39s CPU    105.96s WALL (     832 calls)
     g_psi        :      0.38s CPU      0.39s WALL (     622 calls)
     cdiaghg      :      8.52s CPU      8.55s WALL (     804 calls)

     Called by h_psi:
     h_psi:pot    :    265.75s CPU    269.38s WALL (     832 calls)
     h_psi:calbec :    109.33s CPU    109.65s WALL (     832 calls)
     vloc_psi     :     48.16s CPU     51.30s WALL (     832 calls)
     add_vuspsi   :    108.25s CPU    108.42s WALL (     832 calls)

     General routines
     calbec       :    160.48s CPU    160.90s WALL (    1098 calls)
     fft          :      0.31s CPU      0.33s WALL (     180 calls)
     ffts         :      0.02s CPU      0.02s WALL (      14 calls)
     fftw         :     51.85s CPU     55.05s WALL (   78120 calls)

     Parallel routines
     fft_scatt_xy :      6.80s CPU      7.24s WALL (   78314 calls)
     fft_scatt_yz :     15.45s CPU     16.44s WALL (   78314 calls)

     PWSCF        :   9m42.92s CPU   9m51.09s WALL


   This run was terminated on:   6:31:18  19Jul2021            

=------------------------------------------------------------------------------=
   JOB DONE.
=------------------------------------------------------------------------------=
