
     Program PWSCF v.6.4.1 starts on 19Jul2021 at  1:45:13 

     This program is part of the open-source Quantum ESPRESSO suite
     for quantum simulation of materials; please cite
         "P. Giannozzi et al., J. Phys.:Condens. Matter 21 395502 (2009);
         "P. Giannozzi et al., J. Phys.:Condens. Matter 29 465901 (2017);
          URL http://www.quantum-espresso.org", 
     in publications or presentations arising from this work. More details at
     http://www.quantum-espresso.org/quote

     Parallel version (MPI), running on     4 processors

     MPI processes distributed on     1 nodes
     R & G space division:  proc/nbgrp/npool/nimage =       4
     Reading input from /cloud/Code/python/qeforfit/examples/al/01/wd/configs/11/config_0002.in
Warning: card &IONS ignored
Warning: card ION_DYNAMICS = 'BFGS', ignored
Warning: card / ignored
Warning: card &CELL ignored
Warning: card CELL_DYNAMICS = 'BFGS', ignored
Warning: card CELL_FACTOR = 2.0, ignored
Warning: card PRESS = 0.0, ignored
Warning: card / ignored

     Current dimensions of program PWSCF are:
     Max number of different atomic species (ntypx) = 10
     Max number of k-points (npk) =  40000
     Max angular momentum in pseudopotentials (lmaxx) =  3
               file Al.pbe-nl-kjpaw_psl.1.0.0.UPF: wavefunction(s)  3S 3P renormalized

     Subspace diagonalization in iterative solution of the eigenvalue problem:
     a serial algorithm will be used


     Parallelization info
     --------------------
     sticks:   dense  smooth     PW     G-vecs:    dense   smooth      PW
     Min         926     926    257                42448    42448    6143
     Max         927     927    259                42453    42453    6144
     Sum        3705    3705   1033               169797   169797   24573



     bravais-lattice index     =            0
     lattice parameter (alat)  =      15.2673  a.u.
     unit-cell volume          =    3558.6481 (a.u.)^3
     number of atoms/cell      =           32
     number of atomic types    =            1
     number of electrons       =        96.00
     number of Kohn-Sham states=           58
     kinetic-energy cutoff     =      50.0000  Ry
     charge density cutoff     =     200.0000  Ry
     convergence threshold     =      1.0E-06
     mixing beta               =       0.1000
     number of iterations used =           10  TF        mixing
     Exchange-correlation      = SLA PW PBX PBC ( 1  4  3  4 0 0)

     celldm(1)=  15.267280  celldm(2)=   0.000000  celldm(3)=   0.000000
     celldm(4)=   0.000000  celldm(5)=   0.000000  celldm(6)=   0.000000

     crystal axes: (cart. coord. in units of alat)
               a(1) = (   1.000000   0.000000   0.000000 )  
               a(2) = (   0.000000   1.000000   0.000000 )  
               a(3) = (   0.000000   0.000000   1.000000 )  

     reciprocal axes: (cart. coord. in units 2 pi/alat)
               b(1) = (  1.000000  0.000000  0.000000 )  
               b(2) = (  0.000000  1.000000  0.000000 )  
               b(3) = (  0.000000  0.000000  1.000000 )  


     PseudoPot. # 1 for Al read from file:
     /opt/pp/Al.pbe-nl-kjpaw_psl.1.0.0.UPF
     MD5 check sum: 1b67f78b73fe58c7924490f171ce8a1e
     Pseudo is Projector augmented-wave + core cor, Zval =  3.0
     Generated using "atomic" code by A. Dal Corso v.6.3
     Shape of augmentation charge: PSQ
     Using radial grid of 1135 points,  4 beta functions with: 
                l(1) =   0
                l(2) =   0
                l(3) =   1
                l(4) =   1
     Q(r) pseudized with 0 coefficients 


     atomic species   valence    mass     pseudopotential
        Al             3.00    26.98200     Al( 1.00)

     No symmetry found



   Cartesian axes

     site n.     atom                  positions (alat units)
         1           Al  tau(   1) = (  -0.0028815  -0.0025439  -0.0020756  )
         2           Al  tau(   2) = (   0.2480170   0.2458598  -0.0020573  )
         3           Al  tau(   3) = (   0.2466369  -0.0023760   0.2497445  )
         4           Al  tau(   4) = (  -0.0027800   0.2491301   0.2488499  )
         5           Al  tau(   5) = (  -0.0005730  -0.0006025   0.4964277  )
         6           Al  tau(   6) = (   0.2483356   0.2460403   0.4974087  )
         7           Al  tau(   7) = (   0.2476024  -0.0013886   0.7464840  )
         8           Al  tau(   8) = (  -0.0021805   0.2482893   0.7490614  )
         9           Al  tau(   9) = (  -0.0007198   0.4982426  -0.0027435  )
        10           Al  tau(  10) = (   0.2484971   0.7487901   0.0006238  )
        11           Al  tau(  11) = (   0.2488931   0.4982510   0.2493889  )
        12           Al  tau(  12) = (  -0.0023132   0.7477445   0.2475828  )
        13           Al  tau(  13) = (  -0.0017385   0.4986297   0.4981723  )
        14           Al  tau(  14) = (   0.2470922   0.7478861   0.4963449  )
        15           Al  tau(  15) = (   0.2500733   0.4956945   0.7449476  )
        16           Al  tau(  16) = (  -0.0052447   0.7450235   0.7473252  )
        17           Al  tau(  17) = (   0.4990099  -0.0034234  -0.0029299  )
        18           Al  tau(  18) = (   0.7466786   0.2481328  -0.0044857  )
        19           Al  tau(  19) = (   0.7444624  -0.0033873   0.2479972  )
        20           Al  tau(  20) = (   0.4971812   0.2470709   0.2460334  )
        21           Al  tau(  21) = (   0.4967489  -0.0002760   0.4971606  )
        22           Al  tau(  22) = (   0.7479271   0.2449461   0.4969981  )
        23           Al  tau(  23) = (   0.7476660  -0.0031693   0.7475853  )
        24           Al  tau(  24) = (   0.4974711   0.2464710   0.7473387  )
        25           Al  tau(  25) = (   0.4962004   0.4983051  -0.0043743  )
        26           Al  tau(  26) = (   0.7455581   0.7481628  -0.0004304  )
        27           Al  tau(  27) = (   0.7481858   0.4957939   0.2469493  )
        28           Al  tau(  28) = (   0.4980823   0.7457060   0.2490545  )
        29           Al  tau(  29) = (   0.4947882   0.4982017   0.4977033  )
        30           Al  tau(  30) = (   0.7487065   0.7472778   0.4962170  )
        31           Al  tau(  31) = (   0.7469571   0.4974557   0.7484951  )
        32           Al  tau(  32) = (   0.4974936   0.7469690   0.7467215  )

     number of k points=    14  Marzari-Vanderbilt smearing, width (Ry)=  0.0200
                       cart. coord. in units 2pi/alat
        k(    1) = (   0.1666667   0.1666667   0.1666667), wk =   0.1481481
        k(    2) = (   0.1666667   0.1666667  -0.5000000), wk =   0.1481481
        k(    3) = (   0.1666667  -0.5000000  -0.5000000), wk =   0.1481481
        k(    4) = (  -0.5000000  -0.5000000  -0.5000000), wk =   0.0740741
        k(    5) = (  -0.1666667  -0.1666667   0.1666667), wk =   0.1481481
        k(    6) = (  -0.1666667   0.1666667  -0.1666667), wk =   0.1481481
        k(    7) = (   0.1666667  -0.1666667  -0.1666667), wk =   0.1481481
        k(    8) = (  -0.1666667   0.1666667   0.5000000), wk =   0.1481481
        k(    9) = (  -0.5000000  -0.1666667   0.1666667), wk =   0.1481481
        k(   10) = (   0.5000000  -0.1666667  -0.1666667), wk =   0.1481481
        k(   11) = (  -0.1666667  -0.5000000   0.1666667), wk =   0.1481481
        k(   12) = (  -0.1666667   0.5000000  -0.1666667), wk =   0.1481481
        k(   13) = (  -0.5000000   0.1666667   0.5000000), wk =   0.1481481
        k(   14) = (  -0.5000000   0.5000000   0.1666667), wk =   0.1481481

     Dense  grid:   169797 G-vectors     FFT dimensions: (  72,  72,  72)

     Estimated max dynamical RAM per process >     207.78 MB

     Estimated total dynamical RAM >     831.14 MB

     Initial potential from superposition of free atoms

     starting charge   95.92671, renormalised to   96.00000
     Starting wfcs are  128 randomized atomic wfcs
     Checking if some PAW data can be deallocated... 

     total cpu time spent up to now is       31.2 secs

     Self-consistent Calculation

     iteration #  1     ecut=    50.00 Ry     beta= 0.10
     Davidson diagonalization with overlap
     ethr =  1.00E-02,  avg # of iterations =  3.0

     Threshold (ethr) on eigenvalues was too large:
     Diagonalizing with lowered threshold

     Davidson diagonalization with overlap
     ethr =  1.95E-04,  avg # of iterations =  3.6

     total cpu time spent up to now is      119.1 secs

     total energy              =   -1264.10807718 Ry
     Harris-Foulkes estimate   =   -1264.11431161 Ry
     estimated scf accuracy    <       0.18272738 Ry

     iteration #  2     ecut=    50.00 Ry     beta= 0.10
     Davidson diagonalization with overlap
     ethr =  1.90E-04,  avg # of iterations =  1.0

     total cpu time spent up to now is      148.3 secs

     total energy              =   -1264.06038997 Ry
     Harris-Foulkes estimate   =   -1264.10888302 Ry
     estimated scf accuracy    <       0.15870391 Ry

     iteration #  3     ecut=    50.00 Ry     beta= 0.10
     Davidson diagonalization with overlap
     ethr =  1.65E-04,  avg # of iterations =  1.0

     total cpu time spent up to now is      177.5 secs

     total energy              =   -1264.06369135 Ry
     Harris-Foulkes estimate   =   -1264.06378201 Ry
     estimated scf accuracy    <       0.00064347 Ry

     iteration #  4     ecut=    50.00 Ry     beta= 0.10
     Davidson diagonalization with overlap
     c_bands:  2 eigenvalues not converged
     ethr =  6.70E-07,  avg # of iterations =  5.4

     total cpu time spent up to now is      246.3 secs

     total energy              =   -1264.06459494 Ry
     Harris-Foulkes estimate   =   -1264.06461526 Ry
     estimated scf accuracy    <       0.00058998 Ry

     iteration #  5     ecut=    50.00 Ry     beta= 0.10
     Davidson diagonalization with overlap
     ethr =  6.15E-07,  avg # of iterations =  1.1

     total cpu time spent up to now is      272.9 secs

     total energy              =   -1264.06413810 Ry
     Harris-Foulkes estimate   =   -1264.06459664 Ry
     estimated scf accuracy    <       0.00057153 Ry

     iteration #  6     ecut=    50.00 Ry     beta= 0.10
     Davidson diagonalization with overlap
     ethr =  5.95E-07,  avg # of iterations =  2.0

     total cpu time spent up to now is      312.1 secs

     total energy              =   -1264.06426779 Ry
     Harris-Foulkes estimate   =   -1264.06424332 Ry
     estimated scf accuracy    <       0.00005831 Ry

     iteration #  7     ecut=    50.00 Ry     beta= 0.10
     Davidson diagonalization with overlap
     ethr =  6.07E-08,  avg # of iterations =  2.1

     total cpu time spent up to now is      340.2 secs

     total energy              =   -1264.06425988 Ry
     Harris-Foulkes estimate   =   -1264.06427121 Ry
     estimated scf accuracy    <       0.00001513 Ry

     iteration #  8     ecut=    50.00 Ry     beta= 0.10
     Davidson diagonalization with overlap
     ethr =  1.58E-08,  avg # of iterations =  4.9

     total cpu time spent up to now is      379.1 secs

     total energy              =   -1264.06426440 Ry
     Harris-Foulkes estimate   =   -1264.06426347 Ry
     estimated scf accuracy    <       0.00000349 Ry

     iteration #  9     ecut=    50.00 Ry     beta= 0.10
     Davidson diagonalization with overlap
     ethr =  3.64E-09,  avg # of iterations =  2.3

     total cpu time spent up to now is      407.1 secs

     total energy              =   -1264.06426431 Ry
     Harris-Foulkes estimate   =   -1264.06426470 Ry
     estimated scf accuracy    <       0.00000295 Ry

     iteration # 10     ecut=    50.00 Ry     beta= 0.10
     Davidson diagonalization with overlap
     ethr =  3.07E-09,  avg # of iterations =  1.0

     total cpu time spent up to now is      432.8 secs

     total energy              =   -1264.06426383 Ry
     Harris-Foulkes estimate   =   -1264.06426446 Ry
     estimated scf accuracy    <       0.00000162 Ry

     iteration # 11     ecut=    50.00 Ry     beta= 0.10
     Davidson diagonalization with overlap
     ethr =  1.69E-09,  avg # of iterations =  2.7

     total cpu time spent up to now is      463.3 secs

     End of self-consistent calculation

          k = 0.1667 0.1667 0.1667 ( 21218 PWs)   bands (ev):

    -3.0420  -1.5606  -1.5410  -1.5168  -0.0826  -0.0756  -0.0595  -0.0486
    -0.0389  -0.0104   1.3847   1.3959   1.4123   1.4233   1.4296   1.4365
     1.4526   2.8420   2.8606   2.8698   2.8786   2.8872   2.9053   4.2328
     4.2381   4.2440   4.3310   4.3375   4.3432   5.6244   5.6268   5.6508
     5.6564   5.6675   5.6772   5.7650   7.0409   7.0448   7.0520   7.0683
     7.0739   7.0777   7.0870   7.0937   7.1144   7.4071   7.4123   7.4192
     8.4641   8.4681   8.4816   8.4923   8.5026   8.5069   8.8056   8.8093
     8.8197   8.8305

          k = 0.1667 0.1667-0.5000 ( 21228 PWs)   bands (ev):

    -2.5492  -2.5297  -1.0558  -1.0500  -1.0375  -1.0249   0.4089   0.4252
     0.4379   0.4459   0.4577   0.4622   1.8891   1.8937   1.9000   1.9043
     1.9175   1.9216   3.3336   3.3421   3.3467   3.3505   3.3613   3.3718
     4.6984   4.7019   4.7173   4.7226   4.7656   4.7773   4.7793   4.7887
     4.8103   4.8185   6.1322   6.1378   6.1488   6.1646   6.2233   6.2280
     6.2332   6.2413   7.5331   7.5380   7.5516   7.5647   7.6427   7.6532
     7.8503   7.8560   7.8689   7.8768   8.9784   8.9803   8.9896   8.9960
     9.3342   9.3404

          k = 0.1667-0.5000-0.5000 ( 21296 PWs)   bands (ev):

    -2.0575  -2.0489  -2.0297  -2.0183  -0.5652  -0.5561  -0.5373  -0.5257
     0.9109   0.9201   0.9388   0.9506   2.3534   2.3643   2.3701   2.3775
     2.3852   2.4027   2.4100   2.4159   3.7931   3.8048   3.8110   3.8186
     3.8249   3.8435   3.8508   3.8560   5.1590   5.1688   5.1882   5.2011
     5.2537   5.2643   5.2701   5.2777   5.2866   5.3031   5.3112   5.3163
     6.6652   6.6699   6.6798   6.6858   8.0971   8.1022   8.1112   8.1176
     8.4024   8.4108   8.4268   8.4377   9.3604   9.3741   9.3825   9.3917
     9.4001   9.4243

          k =-0.5000-0.5000-0.5000 ( 21368 PWs)   bands (ev):

    -1.5776  -1.5709  -1.5507  -1.5453  -1.5352  -1.5213  -1.5167  -1.4962
     2.8069   2.8090   2.8197   2.8245   2.8347   2.8424   2.8437   2.8514
     2.8540   2.8590   2.8617   2.8656   2.8688   2.8723   2.8767   2.8784
     2.8846   2.8919   2.8974   2.8986   2.9057   2.9184   2.9293   2.9462
     7.1039   7.1118   7.1178   7.1223   7.1314   7.1363   7.1397   7.1419
     7.1426   7.1486   7.1582   7.1623   7.1679   7.1698   7.1715   7.1771
     7.1803   7.1869   7.1898   7.1913   7.1996   7.2044   7.2182   7.2196
    11.3383  11.3477

          k =-0.1667-0.1667 0.1667 ( 21218 PWs)   bands (ev):

    -3.0420  -1.5563  -1.5413  -1.5212  -0.0811  -0.0694  -0.0599  -0.0474
    -0.0315  -0.0262   1.3813   1.4067   1.4111   1.4178   1.4280   1.4367
     1.4534   2.8498   2.8611   2.8674   2.8762   2.8852   2.9037   4.2354
     4.2391   4.2422   4.3330   4.3367   4.3401   5.6166   5.6411   5.6452
     5.6540   5.6672   5.6790   5.7647   7.0438   7.0511   7.0590   7.0635
     7.0709   7.0755   7.0846   7.0950   7.1096   7.4091   7.4129   7.4167
     8.4663   8.4753   8.4836   8.4896   8.4949   8.5066   8.8038   8.8150
     8.8250   8.8389

          k =-0.1667 0.1667-0.1667 ( 21218 PWs)   bands (ev):

    -3.0420  -1.5602  -1.5396  -1.5187  -0.0842  -0.0723  -0.0564  -0.0454
    -0.0352  -0.0221   1.3891   1.3959   1.4079   1.4171   1.4301   1.4414
     1.4535   2.8510   2.8585   2.8647   2.8791   2.8883   2.9018   4.2326
     4.2386   4.2447   4.3302   4.3371   4.3437   5.6256   5.6301   5.6403
     5.6506   5.6711   5.6846   5.7652   7.0452   7.0493   7.0548   7.0596
     7.0740   7.0806   7.0880   7.0929   7.1089   7.4059   7.4130   7.4193
     8.4655   8.4717   8.4774   8.4951   8.4996   8.5073   8.8065   8.8129
     8.8203   8.8345

          k = 0.1667-0.1667-0.1667 ( 21218 PWs)   bands (ev):

    -3.0420  -1.5577  -1.5447  -1.5161  -0.0847  -0.0697  -0.0583  -0.0548
    -0.0433  -0.0045   1.3899   1.3947   1.4033   1.4197   1.4269   1.4348
     1.4656   2.8437   2.8588   2.8642   2.8769   2.8864   2.9133   4.2318
     4.2388   4.2454   4.3295   4.3369   4.3442   5.6231   5.6320   5.6429
     5.6542   5.6655   5.6855   5.7649   7.0376   7.0452   7.0540   7.0595
     7.0690   7.0805   7.0922   7.0992   7.1147   7.4061   7.4130   7.4209
     8.4603   8.4746   8.4792   8.4941   8.4976   8.5085   8.8070   8.8129
     8.8198   8.8359

          k =-0.1667 0.1667 0.5000 ( 21228 PWs)   bands (ev):

    -2.5492  -2.5297  -1.0606  -1.0447  -1.0412  -1.0217   0.4113   0.4211
     0.4344   0.4460   0.4565   0.4683   1.8813   1.8952   1.9012   1.9059
     1.9162   1.9263   3.3340   3.3392   3.3469   3.3543   3.3634   3.3682
     4.6945   4.7061   4.7153   4.7254   4.7657   4.7734   4.7759   4.7858
     4.8140   4.8239   6.1268   6.1441   6.1465   6.1675   6.2195   6.2291
     6.2335   6.2421   7.5315   7.5405   7.5517   7.5634   7.6424   7.6530
     7.8469   7.8598   7.8666   7.8797   8.9756   8.9832   8.9898   8.9960
     9.3346   9.3418

          k =-0.5000-0.1667 0.1667 ( 21228 PWs)   bands (ev):

    -2.5502  -2.5287  -1.0658  -1.0431  -1.0371  -1.0224   0.4139   0.4259
     0.4346   0.4459   0.4537   0.4640   1.8848   1.8926   1.8981   1.9067
     1.9193   1.9249   3.3324   3.3397   3.3486   3.3556   3.3605   3.3686
     4.6988   4.7002   4.7163   4.7271   4.7643   4.7733   4.7828   4.7920
     4.8062   4.8191   6.1217   6.1446   6.1520   6.1673   6.2213   6.2279
     6.2300   6.2442   7.5278   7.5417   7.5553   7.5630   7.6425   7.6533
     7.8502   7.8538   7.8668   7.8808   8.9744   8.9839   8.9858   9.0013
     9.3290   9.3419

          k = 0.5000-0.1667-0.1667 ( 21228 PWs)   bands (ev):

    -2.5502  -2.5287  -1.0684  -1.0433  -1.0371  -1.0193   0.4027   0.4241
     0.4326   0.4468   0.4528   0.4790   1.8868   1.8889   1.8974   1.9066
     1.9210   1.9250   3.3279   3.3356   3.3453   3.3555   3.3647   3.3768
     4.6944   4.7028   4.7157   4.7254   4.7576   4.7675   4.7836   4.7932
     4.8136   4.8270   6.1183   6.1446   6.1512   6.1688   6.2196   6.2291
     6.2345   6.2422   7.5291   7.5395   7.5480   7.5686   7.6427   7.6530
     7.8460   7.8591   7.8692   7.8801   8.9758   8.9828   8.9907   8.9965
     9.3310   9.3412

          k =-0.1667-0.5000 0.1667 ( 21228 PWs)   bands (ev):

    -2.5424  -2.5366  -1.0589  -1.0555  -1.0336  -1.0203   0.4155   0.4213
     0.4355   0.4380   0.4551   0.4734   1.8876   1.8950   1.9031   1.9061
     1.9125   1.9205   3.3311   3.3351   3.3496   3.3562   3.3633   3.3702
     4.7066   4.7083   4.7123   4.7143   4.7622   4.7658   4.7853   4.7871
     4.8170   4.8226   6.1287   6.1322   6.1549   6.1690   6.2282   6.2294
     6.2319   6.2341   7.5329   7.5440   7.5528   7.5565   7.6459   7.6495
     7.8592   7.8604   7.8660   7.8679   8.9838   8.9844   8.9882   8.9891
     9.3336   9.3528

          k =-0.1667 0.5000-0.1667 ( 21228 PWs)   bands (ev):

    -2.5424  -2.5366  -1.0613  -1.0568  -1.0293  -1.0209   0.4162   0.4239
     0.4365   0.4418   0.4533   0.4668   1.8858   1.8902   1.9034   1.9124
     1.9150   1.9188   3.3284   3.3330   3.3484   3.3547   3.3688   3.3721
     4.7048   4.7079   4.7088   4.7188   4.7603   4.7638   4.7932   4.7957
     4.8110   4.8166   6.1264   6.1318   6.1583   6.1677   6.2262   6.2287
     6.2304   6.2396   7.5358   7.5406   7.5516   7.5599   7.6457   7.6491
     7.8594   7.8598   7.8609   7.8719   8.9812   8.9826   8.9869   8.9941
     9.3408   9.3487

          k =-0.5000 0.1667 0.5000 ( 21296 PWs)   bands (ev):

    -2.0681  -2.0465  -2.0281  -2.0110  -0.5762  -0.5543  -0.5361  -0.5185
     0.9006   0.9217   0.9405   0.9576   2.3509   2.3563   2.3676   2.3861
     2.3939   2.3968   2.4069   2.4225   3.7908   3.7956   3.8075   3.8262
     3.8348   3.8364   3.8471   3.8624   5.1478   5.1702   5.1905   5.2083
     5.2504   5.2569   5.2672   5.2861   5.2937   5.2985   5.3074   5.3236
     6.6605   6.6704   6.6812   6.6893   8.0913   8.1026   8.1117   8.1212
     8.3929   8.4130   8.4273   8.4442   9.3601   9.3662   9.3777   9.4008
     9.4094   9.4130

          k =-0.5000 0.5000 0.1667 ( 21296 PWs)   bands (ev):

    -2.0561  -2.0461  -2.0275  -2.0250  -0.5634  -0.5535  -0.5344  -0.5327
     0.9123   0.9222   0.9415   0.9438   2.3551   2.3653   2.3698   2.3819
     2.3878   2.4007   2.4076   2.4120   3.7948   3.8057   3.8098   3.8223
     3.8276   3.8403   3.8488   3.8525   5.1605   5.1715   5.1909   5.1929
     5.2559   5.2649   5.2710   5.2820   5.2885   5.3016   5.3069   5.3129
     6.6668   6.6720   6.6812   6.6825   8.0972   8.1027   8.1129   8.1141
     8.4034   8.4125   8.4302   8.4319   9.3631   9.3757   9.3807   9.3948
     9.4011   9.4197

     the Fermi energy is     7.8228 ev

!    total energy              =   -1264.06426406 Ry
     Harris-Foulkes estimate   =   -1264.06426410 Ry
     estimated scf accuracy    <       0.00000004 Ry

     total all-electron energy =    -15540.633241 Ry

     The total energy is the sum of the following terms:

     one-electron contribution =     101.30187021 Ry
     hartree contribution      =       0.21071935 Ry
     xc contribution           =     -82.93335534 Ry
     ewald contribution        =    -172.96314510 Ry
     one-center paw contrib.   =   -1109.68316918 Ry
     smearing contrib. (-TS)   =       0.00281601 Ry

     convergence has been achieved in  11 iterations

     Forces acting on atoms (cartesian axes, Ry/au):

     atom    1 type  1   force =    -0.00004503   -0.00001307    0.00016325
     atom    2 type  1   force =    -0.00077429    0.00167704    0.00062687
     atom    3 type  1   force =     0.00181369   -0.00013828   -0.00422863
     atom    4 type  1   force =    -0.00023762   -0.00132927   -0.00272974
     atom    5 type  1   force =    -0.00356615   -0.00311429    0.00257236
     atom    6 type  1   force =    -0.00114188    0.00351326   -0.00005014
     atom    7 type  1   force =    -0.00112288   -0.00421730    0.00267136
     atom    8 type  1   force =     0.00026891   -0.00061313   -0.00205565
     atom    9 type  1   force =     0.00004509   -0.00061877    0.00100940
     atom   10 type  1   force =    -0.00130905   -0.00060590   -0.00511361
     atom   11 type  1   force =    -0.00197714   -0.00210243   -0.00321174
     atom   12 type  1   force =    -0.00070907    0.00031045   -0.00056135
     atom   13 type  1   force =    -0.00141354   -0.00270994   -0.00029309
     atom   14 type  1   force =    -0.00018625    0.00125142    0.00337861
     atom   15 type  1   force =    -0.00425672    0.00239932    0.00405734
     atom   16 type  1   force =     0.00484943    0.00401847    0.00107173
     atom   17 type  1   force =    -0.00347926    0.00036134    0.00071877
     atom   18 type  1   force =     0.00156069   -0.00045629    0.00344955
     atom   19 type  1   force =     0.00409209    0.00182671   -0.00068990
     atom   20 type  1   force =     0.00061294    0.00162792    0.00051261
     atom   21 type  1   force =     0.00157162   -0.00439798    0.00087749
     atom   22 type  1   force =    -0.00103620    0.00459048    0.00103283
     atom   23 type  1   force =     0.00094241   -0.00076003   -0.00164727
     atom   24 type  1   force =     0.00100827    0.00106208   -0.00068200
     atom   25 type  1   force =     0.00076291   -0.00141470    0.00270854
     atom   26 type  1   force =     0.00249170   -0.00180252   -0.00199609
     atom   27 type  1   force =    -0.00132763    0.00020214    0.00087262
     atom   28 type  1   force =    -0.00074868    0.00195559   -0.00058939
     atom   29 type  1   force =     0.00670446   -0.00275537   -0.00086383
     atom   30 type  1   force =    -0.00207579    0.00035595    0.00195582
     atom   31 type  1   force =    -0.00069406   -0.00046346   -0.00276787
     atom   32 type  1   force =    -0.00062295    0.00236057   -0.00019887

     Total force =     0.021701     Total SCF correction =     0.000270


     Computing stress (Cartesian axis) and pressure

          total   stress  (Ry/bohr**3)                   (kbar)     P=   -0.05
  -0.00000026  -0.00000009  -0.00000008         -0.04     -0.01     -0.01
  -0.00000009  -0.00000027   0.00000010         -0.01     -0.04      0.01
  -0.00000008   0.00000010  -0.00000047         -0.01      0.01     -0.07


     Writing output data file ApLlHtDAZiCfvjHs.save/

     init_run     :     30.52s CPU     30.74s WALL (       1 calls)
     electrons    :    426.15s CPU    432.14s WALL (       1 calls)
     forces       :     11.57s CPU     11.60s WALL (       1 calls)
     stress       :     14.77s CPU     14.79s WALL (       1 calls)

     Called by init_run:
     wfcinit      :     29.86s CPU     30.04s WALL (       1 calls)
     potinit      :      0.32s CPU      0.33s WALL (       1 calls)
     hinit0       :      0.14s CPU      0.15s WALL (       1 calls)

     Called by electrons:
     c_bands      :    377.09s CPU    382.36s WALL (      12 calls)
     sum_band     :     43.94s CPU     44.58s WALL (      12 calls)
     v_of_rho     :      0.59s CPU      0.61s WALL (      12 calls)
     newd         :      1.76s CPU      1.81s WALL (      12 calls)
     PAW_pot      :      3.07s CPU      3.08s WALL (      12 calls)
     mix_rho      :      0.14s CPU      0.15s WALL (      12 calls)

     Called by c_bands:
     init_us_2    :      2.41s CPU      2.48s WALL (     378 calls)
     cegterg      :    372.56s CPU    377.46s WALL (     168 calls)

     Called by sum_band:
     sum_band:bec :      0.04s CPU      0.04s WALL (     168 calls)
     addusdens    :      1.63s CPU      1.85s WALL (      12 calls)

     Called by *egterg:
     h_psi        :    220.70s CPU    223.81s WALL (     604 calls)
     s_psi        :     87.60s CPU     88.01s WALL (     604 calls)
     g_psi        :      0.29s CPU      0.29s WALL (     422 calls)
     cdiaghg      :      4.90s CPU      4.90s WALL (     576 calls)

     Called by h_psi:
     h_psi:pot    :    220.16s CPU    222.86s WALL (     604 calls)
     h_psi:calbec :     90.89s CPU     91.13s WALL (     604 calls)
     vloc_psi     :     39.55s CPU     41.94s WALL (     604 calls)
     add_vuspsi   :     89.71s CPU     89.78s WALL (     604 calls)

     General routines
     calbec       :    137.33s CPU    137.65s WALL (     842 calls)
     fft          :      0.28s CPU      0.30s WALL (     158 calls)
     ffts         :      0.02s CPU      0.02s WALL (      12 calls)
     fftw         :     43.07s CPU     45.55s WALL (   62998 calls)

     Parallel routines
     fft_scatt_xy :      5.70s CPU      6.05s WALL (   63168 calls)
     fft_scatt_yz :     13.12s CPU     13.92s WALL (   63168 calls)

     PWSCF        :   8m 3.47s CPU   8m 9.98s WALL


   This run was terminated on:   1:53:23  19Jul2021            

=------------------------------------------------------------------------------=
   JOB DONE.
=------------------------------------------------------------------------------=
