
     Program PWSCF v.6.4.1 starts on 17Jul2021 at  1:17: 6 

     This program is part of the open-source Quantum ESPRESSO suite
     for quantum simulation of materials; please cite
         "P. Giannozzi et al., J. Phys.:Condens. Matter 21 395502 (2009);
         "P. Giannozzi et al., J. Phys.:Condens. Matter 29 465901 (2017);
          URL http://www.quantum-espresso.org", 
     in publications or presentations arising from this work. More details at
     http://www.quantum-espresso.org/quote

     Parallel version (MPI), running on     4 processors

     MPI processes distributed on     1 nodes
     R & G space division:  proc/nbgrp/npool/nimage =       4
     Reading input from /cloud/Code/python/qeforfit/examples/al/01/wd/configs/7/config_0003.in
Warning: card &IONS ignored
Warning: card ION_DYNAMICS = 'BFGS', ignored
Warning: card / ignored
Warning: card &CELL ignored
Warning: card CELL_DYNAMICS = 'BFGS', ignored
Warning: card CELL_FACTOR = 2.0, ignored
Warning: card PRESS = 0.0, ignored
Warning: card / ignored

     Current dimensions of program PWSCF are:
     Max number of different atomic species (ntypx) = 10
     Max number of k-points (npk) =  40000
     Max angular momentum in pseudopotentials (lmaxx) =  3
               file Al.pbe-nl-kjpaw_psl.1.0.0.UPF: wavefunction(s)  3S 3P renormalized

     Subspace diagonalization in iterative solution of the eigenvalue problem:
     a serial algorithm will be used


     Parallelization info
     --------------------
     sticks:   dense  smooth     PW     G-vecs:    dense   smooth      PW
     Min         928     928    258                42646    42646    6208
     Max         929     929    259                42649    42649    6211
     Sum        3713    3713   1033               170589   170589   24837



     bravais-lattice index     =            0
     lattice parameter (alat)  =      15.2760  a.u.
     unit-cell volume          =    3564.7580 (a.u.)^3
     number of atoms/cell      =           32
     number of atomic types    =            1
     number of electrons       =        96.00
     number of Kohn-Sham states=           58
     kinetic-energy cutoff     =      50.0000  Ry
     charge density cutoff     =     200.0000  Ry
     convergence threshold     =      1.0E-06
     mixing beta               =       0.1000
     number of iterations used =           10  TF        mixing
     Exchange-correlation      = SLA PW PBX PBC ( 1  4  3  4 0 0)

     celldm(1)=  15.276013  celldm(2)=   0.000000  celldm(3)=   0.000000
     celldm(4)=   0.000000  celldm(5)=   0.000000  celldm(6)=   0.000000

     crystal axes: (cart. coord. in units of alat)
               a(1) = (   1.000000   0.000000   0.000000 )  
               a(2) = (   0.000000   1.000000   0.000000 )  
               a(3) = (   0.000000   0.000000   1.000000 )  

     reciprocal axes: (cart. coord. in units 2 pi/alat)
               b(1) = (  1.000000  0.000000  0.000000 )  
               b(2) = (  0.000000  1.000000  0.000000 )  
               b(3) = (  0.000000  0.000000  1.000000 )  


     PseudoPot. # 1 for Al read from file:
     /opt/pp/Al.pbe-nl-kjpaw_psl.1.0.0.UPF
     MD5 check sum: 1b67f78b73fe58c7924490f171ce8a1e
     Pseudo is Projector augmented-wave + core cor, Zval =  3.0
     Generated using "atomic" code by A. Dal Corso v.6.3
     Shape of augmentation charge: PSQ
     Using radial grid of 1135 points,  4 beta functions with: 
                l(1) =   0
                l(2) =   0
                l(3) =   1
                l(4) =   1
     Q(r) pseudized with 0 coefficients 


     atomic species   valence    mass     pseudopotential
        Al             3.00    26.98200     Al( 1.00)

     No symmetry found



   Cartesian axes

     site n.     atom                  positions (alat units)
         1           Al  tau(   1) = (  -0.0010799  -0.0009534  -0.0007779  )
         2           Al  tau(   2) = (   0.2492568   0.2484483  -0.0007710  )
         3           Al  tau(   3) = (   0.2487396  -0.0008905   0.2499043  )
         4           Al  tau(   4) = (  -0.0010419   0.2496740   0.2495690  )
         5           Al  tau(   5) = (  -0.0002148  -0.0002258   0.4986611  )
         6           Al  tau(   6) = (   0.2493762   0.2485160   0.4990288  )
         7           Al  tau(   7) = (   0.2491014  -0.0005204   0.7486823  )
         8           Al  tau(   8) = (  -0.0008172   0.2493589   0.7496482  )
         9           Al  tau(   9) = (  -0.0002698   0.4993413  -0.0010282  )
        10           Al  tau(  10) = (   0.2494367   0.7495465   0.0002338  )
        11           Al  tau(  11) = (   0.2495852   0.4993445   0.2497710  )
        12           Al  tau(  12) = (  -0.0008670   0.7491547   0.2490941  )
        13           Al  tau(  13) = (  -0.0006516   0.4994864   0.4993150  )
        14           Al  tau(  14) = (   0.2489102   0.7492077   0.4986301  )
        15           Al  tau(  15) = (   0.2500275   0.4983864   0.7481064  )
        16           Al  tau(  16) = (  -0.0019656   0.7481349   0.7489975  )
        17           Al  tau(  17) = (   0.4996289  -0.0012831  -0.0010981  )
        18           Al  tau(  18) = (   0.7487552   0.2493002  -0.0016812  )
        19           Al  tau(  19) = (   0.7479246  -0.0012695   0.2492494  )
        20           Al  tau(  20) = (   0.4989435   0.2489022   0.2485134  )
        21           Al  tau(  21) = (   0.4987815  -0.0001034   0.4989358  )
        22           Al  tau(  22) = (   0.7492231   0.2481059   0.4988749  )
        23           Al  tau(  23) = (   0.7491253  -0.0011878   0.7490950  )
        24           Al  tau(  24) = (   0.4990522   0.2486774   0.7490026  )
        25           Al  tau(  25) = (   0.4985760   0.4993648  -0.0016394  )
        26           Al  tau(  26) = (   0.7483353   0.7493114  -0.0001613  )
        27           Al  tau(  27) = (   0.7493201   0.4984236   0.2488567  )
        28           Al  tau(  28) = (   0.4992813   0.7483907   0.2496456  )
        29           Al  tau(  29) = (   0.4980467   0.4993260   0.4991392  )
        30           Al  tau(  30) = (   0.7495152   0.7489798   0.4985822  )
        31           Al  tau(  31) = (   0.7488596   0.4990464   0.7494360  )
        32           Al  tau(  32) = (   0.4990606   0.7488640   0.7487713  )

     number of k points=    14  Marzari-Vanderbilt smearing, width (Ry)=  0.0200
                       cart. coord. in units 2pi/alat
        k(    1) = (   0.1666667   0.1666667   0.1666667), wk =   0.1481481
        k(    2) = (   0.1666667   0.1666667  -0.5000000), wk =   0.1481481
        k(    3) = (   0.1666667  -0.5000000  -0.5000000), wk =   0.1481481
        k(    4) = (  -0.5000000  -0.5000000  -0.5000000), wk =   0.0740741
        k(    5) = (  -0.1666667  -0.1666667   0.1666667), wk =   0.1481481
        k(    6) = (  -0.1666667   0.1666667  -0.1666667), wk =   0.1481481
        k(    7) = (   0.1666667  -0.1666667  -0.1666667), wk =   0.1481481
        k(    8) = (  -0.1666667   0.1666667   0.5000000), wk =   0.1481481
        k(    9) = (  -0.5000000  -0.1666667   0.1666667), wk =   0.1481481
        k(   10) = (   0.5000000  -0.1666667  -0.1666667), wk =   0.1481481
        k(   11) = (  -0.1666667  -0.5000000   0.1666667), wk =   0.1481481
        k(   12) = (  -0.1666667   0.5000000  -0.1666667), wk =   0.1481481
        k(   13) = (  -0.5000000   0.1666667   0.5000000), wk =   0.1481481
        k(   14) = (  -0.5000000   0.5000000   0.1666667), wk =   0.1481481

     Dense  grid:   170589 G-vectors     FFT dimensions: (  72,  72,  72)

     Estimated max dynamical RAM per process >     208.44 MB

     Estimated total dynamical RAM >     833.78 MB

     Initial potential from superposition of free atoms

     starting charge   95.92671, renormalised to   96.00000
     Starting wfcs are  128 randomized atomic wfcs
     Checking if some PAW data can be deallocated... 

     total cpu time spent up to now is       30.5 secs

     Self-consistent Calculation

     iteration #  1     ecut=    50.00 Ry     beta= 0.10
     Davidson diagonalization with overlap
     ethr =  1.00E-02,  avg # of iterations =  3.0

     Threshold (ethr) on eigenvalues was too large:
     Diagonalizing with lowered threshold

     Davidson diagonalization with overlap
     ethr =  1.93E-04,  avg # of iterations =  3.6

     total cpu time spent up to now is      118.4 secs

     total energy              =   -1264.10928379 Ry
     Harris-Foulkes estimate   =   -1264.11544004 Ry
     estimated scf accuracy    <       0.18077724 Ry

     iteration #  2     ecut=    50.00 Ry     beta= 0.10
     Davidson diagonalization with overlap
     ethr =  1.88E-04,  avg # of iterations =  1.0

     total cpu time spent up to now is      146.2 secs

     total energy              =   -1264.06234443 Ry
     Harris-Foulkes estimate   =   -1264.11011402 Ry
     estimated scf accuracy    <       0.15705942 Ry

     iteration #  3     ecut=    50.00 Ry     beta= 0.10
     Davidson diagonalization with overlap
     ethr =  1.64E-04,  avg # of iterations =  1.0

     total cpu time spent up to now is      174.3 secs

     total energy              =   -1264.06537715 Ry
     Harris-Foulkes estimate   =   -1264.06545649 Ry
     estimated scf accuracy    <       0.00064416 Ry

     iteration #  4     ecut=    50.00 Ry     beta= 0.10
     Davidson diagonalization with overlap
     c_bands:  2 eigenvalues not converged
     ethr =  6.71E-07,  avg # of iterations =  5.4

     total cpu time spent up to now is      239.2 secs

     total energy              =   -1264.06604680 Ry
     Harris-Foulkes estimate   =   -1264.06616508 Ry
     estimated scf accuracy    <       0.00037318 Ry

     iteration #  5     ecut=    50.00 Ry     beta= 0.10
     Davidson diagonalization with overlap
     ethr =  3.89E-07,  avg # of iterations =  1.7

     total cpu time spent up to now is      267.8 secs

     total energy              =   -1264.06576095 Ry
     Harris-Foulkes estimate   =   -1264.06605111 Ry
     estimated scf accuracy    <       0.00028552 Ry

     iteration #  6     ecut=    50.00 Ry     beta= 0.10
     Davidson diagonalization with overlap
     ethr =  2.97E-07,  avg # of iterations =  2.0

     total cpu time spent up to now is      308.8 secs

     total energy              =   -1264.06584554 Ry
     Harris-Foulkes estimate   =   -1264.06584613 Ry
     estimated scf accuracy    <       0.00002454 Ry

     iteration #  7     ecut=    50.00 Ry     beta= 0.10
     Davidson diagonalization with overlap
     ethr =  2.56E-08,  avg # of iterations =  2.0

     total cpu time spent up to now is      337.9 secs

     total energy              =   -1264.06583834 Ry
     Harris-Foulkes estimate   =   -1264.06584666 Ry
     estimated scf accuracy    <       0.00000856 Ry

     iteration #  8     ecut=    50.00 Ry     beta= 0.10
     Davidson diagonalization with overlap
     ethr =  8.91E-09,  avg # of iterations =  3.0

     total cpu time spent up to now is      379.4 secs

     total energy              =   -1264.06583975 Ry
     Harris-Foulkes estimate   =   -1264.06584038 Ry
     estimated scf accuracy    <       0.00000208 Ry

     iteration #  9     ecut=    50.00 Ry     beta= 0.10
     Davidson diagonalization with overlap
     ethr =  2.17E-09,  avg # of iterations =  1.1

     total cpu time spent up to now is      407.5 secs

     End of self-consistent calculation

          k = 0.1667 0.1667 0.1667 ( 21266 PWs)   bands (ev):

    -3.0472  -1.5543  -1.5469  -1.5377  -0.0725  -0.0700  -0.0638  -0.0598
    -0.0561  -0.0452   1.3959   1.3999   1.4062   1.4102   1.4128   1.4153
     1.4214   2.8501   2.8567   2.8601   2.8632   2.8669   2.8739   4.2237
     4.2258   4.2279   4.3202   4.3226   4.3248   5.6264   5.6274   5.6364
     5.6385   5.6427   5.6465   5.7492   7.0433   7.0442   7.0484   7.0544
     7.0565   7.0585   7.0616   7.0672   7.0765   7.3930   7.3952   7.3976
     8.4602   8.4619   8.4669   8.4711   8.4749   8.4765   8.8005   8.8017
     8.8064   8.8110

          k = 0.1667 0.1667-0.5000 ( 21228 PWs)   bands (ev):

    -2.5489  -2.5413  -1.0548  -1.0525  -1.0477  -1.0428   0.4189   0.4249
     0.4297   0.4327   0.4374   0.4391   1.8857   1.8892   1.8912   1.8934
     1.8992   1.9010   3.3322   3.3351   3.3369   3.3379   3.3426   3.3471
     4.6936   4.6951   4.7011   4.7034   4.7605   4.7647   4.7650   4.7685
     4.7934   4.7968   6.1258   6.1280   6.1328   6.1383   6.2116   6.2132
     6.2154   6.2183   7.5255   7.5273   7.5327   7.5376   7.6287   7.6327
     7.8405   7.8425   7.8478   7.8508   8.9645   8.9652   8.9688   8.9711
     9.3221   9.3249

          k = 0.1667-0.5000-0.5000 ( 21296 PWs)   bands (ev):

    -2.0520  -2.0488  -2.0415  -2.0371  -0.5615  -0.5581  -0.5509  -0.5465
     0.9131   0.9164   0.9237   0.9281   2.3616   2.3659   2.3680   2.3708
     2.3736   2.3801   2.3831   2.3851   3.8004   3.8049   3.8071   3.8101
     3.8124   3.8193   3.8222   3.8242   5.1579   5.1615   5.1691   5.1739
     5.2582   5.2622   5.2643   5.2672   5.2705   5.2766   5.2798   5.2818
     6.6556   6.6574   6.6611   6.6634   8.0859   8.0877   8.0913   8.0936
     8.3937   8.3967   8.4030   8.4070   9.3664   9.3715   9.3748   9.3786
     9.3811   9.3899

          k =-0.5000-0.5000-0.5000 ( 21368 PWs)   bands (ev):

    -1.5609  -1.5584  -1.5504  -1.5485  -1.5449  -1.5393  -1.5379  -1.5298
     2.8331   2.8341   2.8380   2.8398   2.8437   2.8466   2.8471   2.8501
     2.8509   2.8529   2.8538   2.8555   2.8566   2.8578   2.8596   2.8601
     2.8626   2.8654   2.8672   2.8679   2.8705   2.8752   2.8794   2.8858
     7.1237   7.1266   7.1288   7.1305   7.1341   7.1358   7.1372   7.1380
     7.1383   7.1406   7.1441   7.1456   7.1478   7.1484   7.1491   7.1513
     7.1525   7.1548   7.1560   7.1565   7.1596   7.1616   7.1668   7.1673
    11.3381  11.3415

          k =-0.1667-0.1667 0.1667 ( 21266 PWs)   bands (ev):

    -3.0472  -1.5526  -1.5469  -1.5394  -0.0719  -0.0676  -0.0640  -0.0594
    -0.0531  -0.0514   1.3946   1.4041   1.4057   1.4083   1.4122   1.4153
     1.4218   2.8530   2.8569   2.8592   2.8625   2.8661   2.8733   4.2246
     4.2259   4.2271   4.3210   4.3225   4.3238   5.6236   5.6328   5.6343
     5.6375   5.6427   5.6471   5.7491   7.0437   7.0474   7.0501   7.0534
     7.0544   7.0572   7.0622   7.0678   7.0745   7.3938   7.3953   7.3967
     8.4612   8.4646   8.4677   8.4700   8.4720   8.4763   8.7994   8.8035
     8.8086   8.8097

          k =-0.1667 0.1667-0.1667 ( 21266 PWs)   bands (ev):

    -3.0472  -1.5542  -1.5464  -1.5384  -0.0732  -0.0687  -0.0626  -0.0587
    -0.0546  -0.0497   1.3975   1.3999   1.4045   1.4080   1.4131   1.4172
     1.4216   2.8536   2.8560   2.8581   2.8633   2.8674   2.8727   4.2236
     4.2258   4.2281   4.3200   4.3225   4.3250   5.6270   5.6287   5.6325
     5.6363   5.6442   5.6491   5.7492   7.0441   7.0464   7.0488   7.0515
     7.0569   7.0593   7.0621   7.0670   7.0748   7.3927   7.3953   7.3977
     8.4608   8.4632   8.4655   8.4719   8.4737   8.4767   8.8004   8.8027
     8.8053   8.8114

          k = 0.1667-0.1667-0.1667 ( 21266 PWs)   bands (ev):

    -3.0472  -1.5532  -1.5483  -1.5375  -0.0732  -0.0678  -0.0635  -0.0620
    -0.0578  -0.0430   1.3978   1.3996   1.4028   1.4089   1.4117   1.4145
     1.4265   2.8507   2.8558   2.8583   2.8629   2.8664   2.8769   4.2233
     4.2259   4.2284   4.3197   4.3225   4.3253   5.6260   5.6293   5.6335
     5.6377   5.6419   5.6494   5.7492   7.0420   7.0461   7.0480   7.0510
     7.0541   7.0594   7.0650   7.0682   7.0766   7.3926   7.3953   7.3981
     8.4590   8.4643   8.4661   8.4718   8.4731   8.4772   8.8006   8.8023
     8.8069   8.8118

          k =-0.1667 0.1667 0.5000 ( 21228 PWs)   bands (ev):

    -2.5489  -2.5413  -1.0566  -1.0505  -1.0490  -1.0416   0.4197   0.4232
     0.4286   0.4329   0.4369   0.4414   1.8836   1.8884   1.8922   1.8945
     1.8986   1.9025   3.3319   3.3345   3.3368   3.3397   3.3430   3.3459
     4.6923   4.6964   4.7004   4.7042   4.7600   4.7633   4.7651   4.7689
     4.7939   4.7976   6.1238   6.1302   6.1316   6.1394   6.2102   6.2138
     6.2156   6.2188   7.5249   7.5282   7.5328   7.5371   7.6287   7.6327
     7.8390   7.8440   7.8469   7.8517   8.9634   8.9663   8.9688   8.9712
     9.3216   9.3261

          k =-0.5000-0.1667 0.1667 ( 21228 PWs)   bands (ev):

    -2.5493  -2.5410  -1.0585  -1.0500  -1.0474  -1.0420   0.4206   0.4253
     0.4286   0.4327   0.4358   0.4397   1.8848   1.8876   1.8915   1.8942
     1.8994   1.9023   3.3314   3.3344   3.3376   3.3400   3.3424   3.3458
     4.6937   4.6944   4.7007   4.7048   4.7594   4.7631   4.7666   4.7702
     4.7924   4.7970   6.1219   6.1306   6.1335   6.1391   6.2111   6.2133
     6.2142   6.2196   7.5235   7.5286   7.5341   7.5370   7.6285   7.6328
     7.8404   7.8419   7.8470   7.8523   8.9630   8.9664   8.9673   8.9730
     9.3218   9.3271

          k = 0.5000-0.1667-0.1667 ( 21228 PWs)   bands (ev):

    -2.5493  -2.5410  -1.0595  -1.0498  -1.0477  -1.0409   0.4164   0.4248
     0.4277   0.4331   0.4353   0.4454   1.8857   1.8865   1.8903   1.8949
     1.9004   1.9019   3.3296   3.3328   3.3366   3.3404   3.3436   3.3487
     4.6922   4.6956   4.7008   4.7043   4.7571   4.7612   4.7678   4.7711
     4.7937   4.7984   6.1208   6.1309   6.1330   6.1401   6.2102   6.2138
     6.2157   6.2188   7.5241   7.5280   7.5315   7.5392   7.6286   7.6328
     7.8389   7.8436   7.8477   7.8518   8.9634   8.9661   8.9691   8.9713
     9.3209   9.3254

          k =-0.1667-0.5000 0.1667 ( 21228 PWs)   bands (ev):

    -2.5462  -2.5441  -1.0559  -1.0545  -1.0463  -1.0412   0.4212   0.4234
     0.4288   0.4298   0.4364   0.4431   1.8854   1.8880   1.8943   1.8951
     1.8971   1.8996   3.3308   3.3321   3.3389   3.3414   3.3427   3.3457
     4.6972   4.6974   4.6992   4.6996   4.7589   4.7596   4.7688   4.7700
     4.7951   4.7965   6.1246   6.1261   6.1346   6.1398   6.2136   6.2140
     6.2151   6.2156   7.5257   7.5297   7.5331   7.5346   7.6300   7.6313
     7.8441   7.8445   7.8464   7.8468   8.9665   8.9667   8.9682   8.9684
     9.3216   9.3270

          k =-0.1667 0.5000-0.1667 ( 21228 PWs)   bands (ev):

    -2.5462  -2.5441  -1.0568  -1.0551  -1.0446  -1.0414   0.4214   0.4243
     0.4295   0.4315   0.4355   0.4405   1.8849   1.8868   1.8944   1.8968
     1.8976   1.8992   3.3297   3.3313   3.3385   3.3407   3.3452   3.3464
     4.6969   4.6973   4.6977   4.7012   4.7578   4.7589   4.7711   4.7718
     4.7942   4.7954   6.1237   6.1256   6.1361   6.1395   6.2128   6.2139
     6.2142   6.2176   7.5266   7.5284   7.5326   7.5356   7.6300   7.6312
     7.8440   7.8443   7.8446   7.8487   8.9656   8.9661   8.9676   8.9704
     9.3230   9.3287

          k =-0.5000 0.1667 0.5000 ( 21296 PWs)   bands (ev):

    -2.0562  -2.0479  -2.0410  -2.0342  -0.5657  -0.5574  -0.5505  -0.5436
     0.9089   0.9172   0.9241   0.9310   2.3605   2.3625   2.3670   2.3740
     2.3769   2.3781   2.3817   2.3878   3.7994   3.8013   3.8060   3.8130
     3.8162   3.8169   3.8209   3.8268   5.1535   5.1622   5.1698   5.1769
     5.2567   5.2592   5.2632   5.2705   5.2732   5.2751   5.2784   5.2846
     6.6537   6.6576   6.6615   6.6647   8.0837   8.0881   8.0914   8.0951
     8.3899   8.3977   8.4031   8.4097   9.3679   9.3686   9.3733   9.3824
     9.3855   9.3884

          k =-0.5000 0.5000 0.1667 ( 21296 PWs)   bands (ev):

    -2.0515  -2.0478  -2.0404  -2.0397  -0.5609  -0.5573  -0.5497  -0.5491
     0.9136   0.9172   0.9248   0.9255   2.3622   2.3661   2.3679   2.3724
     2.3745   2.3794   2.3821   2.3838   3.8010   3.8052   3.8068   3.8115
     3.8135   3.8183   3.8214   3.8230   5.1585   5.1625   5.1703   5.1709
     5.2588   5.2624   5.2647   5.2687   5.2712   5.2762   5.2782   5.2805
     6.6561   6.6580   6.6616   6.6620   8.0860   8.0880   8.0919   8.0924
     8.3940   8.3973   8.4043   8.4048   9.3672   9.3735   9.3742   9.3803
     9.3821   9.3918

     the Fermi energy is     7.8057 ev

!    total energy              =   -1264.06583903 Ry
     Harris-Foulkes estimate   =   -1264.06583982 Ry
     estimated scf accuracy    <       0.00000083 Ry

     total all-electron energy =    -15540.634816 Ry

     The total energy is the sum of the following terms:

     one-electron contribution =     101.18338516 Ry
     hartree contribution      =       0.20324561 Ry
     xc contribution           =     -82.90212032 Ry
     ewald contribution        =    -172.87573092 Ry
     one-center paw contrib.   =   -1109.67729266 Ry
     smearing contrib. (-TS)   =       0.00267410 Ry

     convergence has been achieved in   9 iterations

     Forces acting on atoms (cartesian axes, Ry/au):

     atom    1 type  1   force =    -0.00000848    0.00000602    0.00006854
     atom    2 type  1   force =    -0.00026757    0.00063932    0.00024604
     atom    3 type  1   force =     0.00068710   -0.00007247   -0.00152784
     atom    4 type  1   force =    -0.00013063   -0.00049090   -0.00100753
     atom    5 type  1   force =    -0.00129558   -0.00117117    0.00094788
     atom    6 type  1   force =    -0.00041595    0.00128787   -0.00000806
     atom    7 type  1   force =    -0.00041275   -0.00160051    0.00096413
     atom    8 type  1   force =     0.00009552   -0.00022480   -0.00078501
     atom    9 type  1   force =     0.00000932   -0.00023140    0.00037398
     atom   10 type  1   force =    -0.00047558   -0.00025786   -0.00196818
     atom   11 type  1   force =    -0.00070783   -0.00076392   -0.00115162
     atom   12 type  1   force =    -0.00024680    0.00009956   -0.00018141
     atom   13 type  1   force =    -0.00053690   -0.00100106   -0.00010765
     atom   14 type  1   force =    -0.00005612    0.00045613    0.00124578
     atom   15 type  1   force =    -0.00151543    0.00093844    0.00149750
     atom   16 type  1   force =     0.00184429    0.00148099    0.00037519
     atom   17 type  1   force =    -0.00130447    0.00009773    0.00029199
     atom   18 type  1   force =     0.00058328   -0.00014394    0.00129416
     atom   19 type  1   force =     0.00152706    0.00070181   -0.00024785
     atom   20 type  1   force =     0.00022449    0.00062081    0.00020840
     atom   21 type  1   force =     0.00056694   -0.00163090    0.00033151
     atom   22 type  1   force =    -0.00042604    0.00175033    0.00037448
     atom   23 type  1   force =     0.00033269   -0.00030104   -0.00064780
     atom   24 type  1   force =     0.00036695    0.00040875   -0.00028214
     atom   25 type  1   force =     0.00030250   -0.00051392    0.00100466
     atom   26 type  1   force =     0.00089379   -0.00067786   -0.00074384
     atom   27 type  1   force =    -0.00049992    0.00005152    0.00034468
     atom   28 type  1   force =    -0.00029902    0.00072311   -0.00019756
     atom   29 type  1   force =     0.00246766   -0.00102612   -0.00030445
     atom   30 type  1   force =    -0.00078772    0.00012762    0.00074017
     atom   31 type  1   force =    -0.00027896   -0.00015232   -0.00105266
     atom   32 type  1   force =    -0.00023582    0.00087017   -0.00009551

     Total force =     0.008073     Total SCF correction =     0.001142
     SCF correction compared to forces is large: reduce conv_thr to get better values


     Computing stress (Cartesian axis) and pressure

          total   stress  (Ry/bohr**3)                   (kbar)     P=   -1.65
  -0.00001123  -0.00000001  -0.00000001         -1.65     -0.00     -0.00
  -0.00000001  -0.00001122   0.00000002         -0.00     -1.65      0.00
  -0.00000001   0.00000002  -0.00001126         -0.00      0.00     -1.66


     Writing output data file mchOsKZIgoSmioml.save/

     init_run     :     29.84s CPU     30.16s WALL (       1 calls)
     electrons    :    371.73s CPU    377.02s WALL (       1 calls)
     forces       :     12.86s CPU     12.92s WALL (       1 calls)
     stress       :     15.71s CPU     15.71s WALL (       1 calls)

     Called by init_run:
     wfcinit      :     29.17s CPU     29.45s WALL (       1 calls)
     potinit      :      0.33s CPU      0.34s WALL (       1 calls)
     hinit0       :      0.15s CPU      0.16s WALL (       1 calls)

     Called by electrons:
     c_bands      :    329.78s CPU    334.45s WALL (      10 calls)
     sum_band     :     37.65s CPU     38.22s WALL (      10 calls)
     v_of_rho     :      0.52s CPU      0.53s WALL (      10 calls)
     newd         :      1.56s CPU      1.60s WALL (      10 calls)
     PAW_pot      :      2.56s CPU      2.56s WALL (      10 calls)
     mix_rho      :      0.10s CPU      0.11s WALL (      10 calls)

     Called by c_bands:
     init_us_2    :      2.20s CPU      2.25s WALL (     322 calls)
     cegterg      :    325.77s CPU    330.18s WALL (     140 calls)

     Called by sum_band:
     sum_band:bec :      0.03s CPU      0.03s WALL (     140 calls)
     addusdens    :      1.40s CPU      1.56s WALL (      10 calls)

     Called by *egterg:
     h_psi        :    193.79s CPU    196.56s WALL (     487 calls)
     s_psi        :     77.20s CPU     77.65s WALL (     487 calls)
     g_psi        :      0.25s CPU      0.25s WALL (     333 calls)
     cdiaghg      :      4.19s CPU      4.20s WALL (     459 calls)

     Called by h_psi:
     h_psi:pot    :    193.29s CPU    195.72s WALL (     487 calls)
     h_psi:calbec :     79.72s CPU     79.95s WALL (     487 calls)
     vloc_psi     :     35.03s CPU     37.10s WALL (     487 calls)
     add_vuspsi   :     78.53s CPU     78.67s WALL (     487 calls)

     General routines
     calbec       :    122.19s CPU    122.54s WALL (     697 calls)
     fft          :      0.27s CPU      0.28s WALL (     136 calls)
     ffts         :      0.02s CPU      0.02s WALL (      10 calls)
     fftw         :     37.96s CPU     40.09s WALL (   53754 calls)

     Parallel routines
     fft_scatt_xy :      4.76s CPU      5.03s WALL (   53900 calls)
     fft_scatt_yz :     12.27s CPU     13.02s WALL (   53900 calls)

     PWSCF        :   7m10.61s CPU   7m16.97s WALL


   This run was terminated on:   1:24:23  17Jul2021            

=------------------------------------------------------------------------------=
   JOB DONE.
=------------------------------------------------------------------------------=
