
     Program PWSCF v.6.4.1 starts on 19Jul2021 at  2:33:53 

     This program is part of the open-source Quantum ESPRESSO suite
     for quantum simulation of materials; please cite
         "P. Giannozzi et al., J. Phys.:Condens. Matter 21 395502 (2009);
         "P. Giannozzi et al., J. Phys.:Condens. Matter 29 465901 (2017);
          URL http://www.quantum-espresso.org", 
     in publications or presentations arising from this work. More details at
     http://www.quantum-espresso.org/quote

     Parallel version (MPI), running on     4 processors

     MPI processes distributed on     1 nodes
     R & G space division:  proc/nbgrp/npool/nimage =       4
     Reading input from /cloud/Code/python/qeforfit/examples/al/01/wd/configs/12/config_0003.in
Warning: card &IONS ignored
Warning: card ION_DYNAMICS = 'BFGS', ignored
Warning: card / ignored
Warning: card &CELL ignored
Warning: card CELL_DYNAMICS = 'BFGS', ignored
Warning: card CELL_FACTOR = 2.0, ignored
Warning: card PRESS = 0.0, ignored
Warning: card / ignored

     Current dimensions of program PWSCF are:
     Max number of different atomic species (ntypx) = 10
     Max number of k-points (npk) =  40000
     Max angular momentum in pseudopotentials (lmaxx) =  3
               file Al.pbe-nl-kjpaw_psl.1.0.0.UPF: wavefunction(s)  3S 3P renormalized

     Subspace diagonalization in iterative solution of the eigenvalue problem:
     a serial algorithm will be used


     Parallelization info
     --------------------
     sticks:   dense  smooth     PW     G-vecs:    dense   smooth      PW
     Min         927     927    257                42586    42586    6143
     Max         929     929    259                42589    42589    6144
     Sum        3713    3713   1033               170349   170349   24573



     bravais-lattice index     =            0
     lattice parameter (alat)  =      15.2741  a.u.
     unit-cell volume          =    3563.4251 (a.u.)^3
     number of atoms/cell      =           32
     number of atomic types    =            1
     number of electrons       =        96.00
     number of Kohn-Sham states=           58
     kinetic-energy cutoff     =      50.0000  Ry
     charge density cutoff     =     200.0000  Ry
     convergence threshold     =      1.0E-06
     mixing beta               =       0.1000
     number of iterations used =           10  TF        mixing
     Exchange-correlation      = SLA PW PBX PBC ( 1  4  3  4 0 0)

     celldm(1)=  15.274109  celldm(2)=   0.000000  celldm(3)=   0.000000
     celldm(4)=   0.000000  celldm(5)=   0.000000  celldm(6)=   0.000000

     crystal axes: (cart. coord. in units of alat)
               a(1) = (   1.000000   0.000000   0.000000 )  
               a(2) = (   0.000000   1.000000   0.000000 )  
               a(3) = (   0.000000   0.000000   1.000000 )  

     reciprocal axes: (cart. coord. in units 2 pi/alat)
               b(1) = (  1.000000  0.000000  0.000000 )  
               b(2) = (  0.000000  1.000000  0.000000 )  
               b(3) = (  0.000000  0.000000  1.000000 )  


     PseudoPot. # 1 for Al read from file:
     /opt/pp/Al.pbe-nl-kjpaw_psl.1.0.0.UPF
     MD5 check sum: 1b67f78b73fe58c7924490f171ce8a1e
     Pseudo is Projector augmented-wave + core cor, Zval =  3.0
     Generated using "atomic" code by A. Dal Corso v.6.3
     Shape of augmentation charge: PSQ
     Using radial grid of 1135 points,  4 beta functions with: 
                l(1) =   0
                l(2) =   0
                l(3) =   1
                l(4) =   1
     Q(r) pseudized with 0 coefficients 


     atomic species   valence    mass     pseudopotential
        Al             3.00    26.98200     Al( 1.00)

     No symmetry found



   Cartesian axes

     site n.     atom                  positions (alat units)
         1           Al  tau(   1) = (  -0.0043203  -0.0038141  -0.0031120  )
         2           Al  tau(   2) = (   0.2470268   0.2437925  -0.0030845  )
         3           Al  tau(   3) = (   0.2449576  -0.0035624   0.2496170  )
         4           Al  tau(   4) = (  -0.0041682   0.2486958   0.2482756  )
         5           Al  tau(   5) = (  -0.0008591  -0.0009034   0.4946439  )
         6           Al  tau(   6) = (   0.2475046   0.2440631   0.4961148  )
         7           Al  tau(   7) = (   0.2464052  -0.0020820   0.7447284  )
         8           Al  tau(   8) = (  -0.0032693   0.2474351   0.7485927  )
         9           Al  tau(   9) = (  -0.0010792   0.4973651  -0.0041134  )
        10           Al  tau(  10) = (   0.2477467   0.7481859   0.0009352  )
        11           Al  tau(  11) = (   0.2483405   0.4973777   0.2490838  )
        12           Al  tau(  12) = (  -0.0034683   0.7466182   0.2463758  )
        13           Al  tau(  13) = (  -0.0026066   0.4979454   0.4972597  )
        14           Al  tau(  14) = (   0.2456403   0.7468306   0.4945198  )
        15           Al  tau(  15) = (   0.2501098   0.4935446   0.7424247  )
        16           Al  tau(  16) = (  -0.0078635   0.7425386   0.7459896  )
        17           Al  tau(  17) = (   0.4985155  -0.0051329  -0.0043929  )
        18           Al  tau(  18) = (   0.7450201   0.2472005  -0.0067255  )
        19           Al  tau(  19) = (   0.7416973  -0.0050787   0.2469971  )
        20           Al  tau(  20) = (   0.4957736   0.2456083   0.2440527  )
        21           Al  tau(  21) = (   0.4951255  -0.0004138   0.4957428  )
        22           Al  tau(  22) = (   0.7468920   0.2424225   0.4954992  )
        23           Al  tau(  23) = (   0.7465006  -0.0047519   0.7463796  )
        24           Al  tau(  24) = (   0.4962084   0.2447088   0.7460098  )
        25           Al  tau(  25) = (   0.4943032   0.4974587  -0.0065586  )
        26           Al  tau(  26) = (   0.7433402   0.7472454  -0.0006453  )
        27           Al  tau(  27) = (   0.7472799   0.4936937   0.2454261  )
        28           Al  tau(  28) = (   0.4971247   0.7435619   0.2485824  )
        29           Al  tau(  29) = (   0.4921858   0.4973038   0.4965566  )
        30           Al  tau(  30) = (   0.7480607   0.7459186   0.4943280  )
        31           Al  tau(  31) = (   0.7454377   0.4961853   0.7477436  )
        32           Al  tau(  32) = (   0.4962421   0.7454556   0.7450845  )

     number of k points=    14  Marzari-Vanderbilt smearing, width (Ry)=  0.0200
                       cart. coord. in units 2pi/alat
        k(    1) = (   0.1666667   0.1666667   0.1666667), wk =   0.1481481
        k(    2) = (   0.1666667   0.1666667  -0.5000000), wk =   0.1481481
        k(    3) = (   0.1666667  -0.5000000  -0.5000000), wk =   0.1481481
        k(    4) = (  -0.5000000  -0.5000000  -0.5000000), wk =   0.0740741
        k(    5) = (  -0.1666667  -0.1666667   0.1666667), wk =   0.1481481
        k(    6) = (  -0.1666667   0.1666667  -0.1666667), wk =   0.1481481
        k(    7) = (   0.1666667  -0.1666667  -0.1666667), wk =   0.1481481
        k(    8) = (  -0.1666667   0.1666667   0.5000000), wk =   0.1481481
        k(    9) = (  -0.5000000  -0.1666667   0.1666667), wk =   0.1481481
        k(   10) = (   0.5000000  -0.1666667  -0.1666667), wk =   0.1481481
        k(   11) = (  -0.1666667  -0.5000000   0.1666667), wk =   0.1481481
        k(   12) = (  -0.1666667   0.5000000  -0.1666667), wk =   0.1481481
        k(   13) = (  -0.5000000   0.1666667   0.5000000), wk =   0.1481481
        k(   14) = (  -0.5000000   0.5000000   0.1666667), wk =   0.1481481

     Dense  grid:   170349 G-vectors     FFT dimensions: (  72,  72,  72)

     Estimated max dynamical RAM per process >     208.25 MB

     Estimated total dynamical RAM >     833.00 MB

     Initial potential from superposition of free atoms

     starting charge   95.92671, renormalised to   96.00000
     Starting wfcs are  128 randomized atomic wfcs
     Checking if some PAW data can be deallocated... 

     total cpu time spent up to now is       29.2 secs

     Self-consistent Calculation

     iteration #  1     ecut=    50.00 Ry     beta= 0.10
     Davidson diagonalization with overlap
     ethr =  1.00E-02,  avg # of iterations =  3.0

     Threshold (ethr) on eigenvalues was too large:
     Diagonalizing with lowered threshold

     Davidson diagonalization with overlap
     ethr =  1.97E-04,  avg # of iterations =  3.6

     total cpu time spent up to now is      114.3 secs

     total energy              =   -1264.10616799 Ry
     Harris-Foulkes estimate   =   -1264.11250690 Ry
     estimated scf accuracy    <       0.18541529 Ry

     iteration #  2     ecut=    50.00 Ry     beta= 0.10
     Davidson diagonalization with overlap
     ethr =  1.93E-04,  avg # of iterations =  1.0

     total cpu time spent up to now is      141.9 secs

     total energy              =   -1264.05741921 Ry
     Harris-Foulkes estimate   =   -1264.10701876 Ry
     estimated scf accuracy    <       0.16110984 Ry

     iteration #  3     ecut=    50.00 Ry     beta= 0.10
     Davidson diagonalization with overlap
     ethr =  1.68E-04,  avg # of iterations =  1.0

     total cpu time spent up to now is      169.7 secs

     total energy              =   -1264.06121651 Ry
     Harris-Foulkes estimate   =   -1264.06128522 Ry
     estimated scf accuracy    <       0.00067830 Ry

     iteration #  4     ecut=    50.00 Ry     beta= 0.10
     Davidson diagonalization with overlap
     c_bands:  2 eigenvalues not converged
     ethr =  7.07E-07,  avg # of iterations =  6.1

     total cpu time spent up to now is      239.1 secs

     total energy              =   -1264.06233576 Ry
     Harris-Foulkes estimate   =   -1264.06234192 Ry
     estimated scf accuracy    <       0.00095895 Ry

     iteration #  5     ecut=    50.00 Ry     beta= 0.10
     Davidson diagonalization with overlap
     ethr =  7.07E-07,  avg # of iterations =  1.8

     total cpu time spent up to now is      267.8 secs

     total energy              =   -1264.06189614 Ry
     Harris-Foulkes estimate   =   -1264.06233739 Ry
     estimated scf accuracy    <       0.00095633 Ry

     iteration #  6     ecut=    50.00 Ry     beta= 0.10
     Davidson diagonalization with overlap
     ethr =  7.07E-07,  avg # of iterations =  1.0

     total cpu time spent up to now is      295.7 secs

     total energy              =   -1264.06181676 Ry
     Harris-Foulkes estimate   =   -1264.06193086 Ry
     estimated scf accuracy    <       0.00036322 Ry

     iteration #  7     ecut=    50.00 Ry     beta= 0.10
     Davidson diagonalization with overlap
     ethr =  3.78E-07,  avg # of iterations =  3.1

     total cpu time spent up to now is      338.8 secs

     total energy              =   -1264.06192380 Ry
     Harris-Foulkes estimate   =   -1264.06192517 Ry
     estimated scf accuracy    <       0.00005972 Ry

     iteration #  8     ecut=    50.00 Ry     beta= 0.10
     Davidson diagonalization with overlap
     ethr =  6.22E-08,  avg # of iterations =  1.2

     total cpu time spent up to now is      365.8 secs

     total energy              =   -1264.06192374 Ry
     Harris-Foulkes estimate   =   -1264.06192541 Ry
     estimated scf accuracy    <       0.00005919 Ry

     iteration #  9     ecut=    50.00 Ry     beta= 0.10
     Davidson diagonalization with overlap
     ethr =  6.17E-08,  avg # of iterations =  1.0

     total cpu time spent up to now is      392.0 secs

     total energy              =   -1264.06189730 Ry
     Harris-Foulkes estimate   =   -1264.06192402 Ry
     estimated scf accuracy    <       0.00005469 Ry

     iteration # 10     ecut=    50.00 Ry     beta= 0.10
     Davidson diagonalization with overlap
     ethr =  5.70E-08,  avg # of iterations =  4.6

     total cpu time spent up to now is      431.2 secs

     total energy              =   -1264.06192283 Ry
     Harris-Foulkes estimate   =   -1264.06192917 Ry
     estimated scf accuracy    <       0.00010202 Ry

     iteration # 11     ecut=    50.00 Ry     beta= 0.10
     Davidson diagonalization with overlap
     ethr =  5.70E-08,  avg # of iterations =  1.1

     total cpu time spent up to now is      457.5 secs

     total energy              =   -1264.06190932 Ry
     Harris-Foulkes estimate   =   -1264.06192376 Ry
     estimated scf accuracy    <       0.00006670 Ry

     iteration # 12     ecut=    50.00 Ry     beta= 0.10
     Davidson diagonalization with overlap
     ethr =  5.70E-08,  avg # of iterations =  2.6

     total cpu time spent up to now is      486.9 secs

     total energy              =   -1264.06191513 Ry
     Harris-Foulkes estimate   =   -1264.06191514 Ry
     estimated scf accuracy    <       0.00000221 Ry

     iteration # 13     ecut=    50.00 Ry     beta= 0.10
     Davidson diagonalization with overlap
     ethr =  2.31E-09,  avg # of iterations =  3.8

     total cpu time spent up to now is      528.3 secs

     End of self-consistent calculation

          k = 0.1667 0.1667 0.1667 ( 21266 PWs)   bands (ev):

    -3.0479  -1.5782  -1.5491  -1.5130  -0.1061  -0.0952  -0.0711  -0.0546
    -0.0403   0.0020   1.3583   1.3753   1.3999   1.4162   1.4256   1.4358
     1.4601   2.8157   2.8441   2.8581   2.8715   2.8838   2.9109   4.2181
     4.2260   4.2350   4.3172   4.3271   4.3353   5.5994   5.6029   5.6389
     5.6472   5.6639   5.6779   5.7531   7.0120   7.0190   7.0285   7.0526
     7.0606   7.0685   7.0806   7.0908   7.1190   7.3904   7.3977   7.4085
     8.4390   8.4446   8.4648   8.4805   8.4958   8.5026   8.7810   8.7870
     8.8027   8.8205

          k = 0.1667 0.1667-0.5000 ( 21228 PWs)   bands (ev):

    -2.5607  -2.5313  -1.0704  -1.0617  -1.0426  -1.0242   0.3848   0.4093
     0.4285   0.4405   0.4581   0.4647   1.8730   1.8781   1.8890   1.8956
     1.9145   1.9203   3.3143   3.3272   3.3342   3.3402   3.3559   3.3713
     4.6790   4.6841   4.7068   4.7133   4.7484   4.7650   4.7686   4.7831
     4.8020   4.8142   6.1121   6.1201   6.1356   6.1603   6.2078   6.2151
     6.2223   6.2348   7.5117   7.5195   7.5396   7.5592   7.6263   7.6419
     7.8303   7.8395   7.8584   7.8700   8.9589   8.9616   8.9752   8.9852
     9.3117   9.3189

          k = 0.1667-0.5000-0.5000 ( 21296 PWs)   bands (ev):

    -2.0736  -2.0612  -2.0319  -2.0153  -0.5825  -0.5689  -0.5406  -0.5234
     0.8926   0.9062   0.9343   0.9516   2.3280   2.3441   2.3526   2.3638
     2.3757   2.4017   2.4123   2.4215   3.7664   3.7840   3.7932   3.8046
     3.8141   3.8418   3.8526   3.8604   5.1372   5.1519   5.1806   5.1993
     5.2265   5.2419   5.2507   5.2623   5.2755   5.3000   5.3119   5.3196
     6.6474   6.6545   6.6694   6.6784   8.0774   8.0853   8.0986   8.1081
     8.3774   8.3901   8.4140   8.4304   9.3261   9.3467   9.3593   9.3727
     9.3847   9.4148

          k =-0.5000-0.5000-0.5000 ( 21368 PWs)   bands (ev):

    -1.6037  -1.5936  -1.5632  -1.5550  -1.5400  -1.5194  -1.5127  -1.4821
     2.7662   2.7692   2.7855   2.7927   2.8078   2.8193   2.8214   2.8331
     2.8368   2.8442   2.8485   2.8541   2.8589   2.8643   2.8707   2.8733
     2.8825   2.8934   2.9018   2.9034   2.9139   2.9331   2.9494   2.9747
     7.0613   7.0731   7.0823   7.0891   7.1024   7.1101   7.1151   7.1183
     7.1194   7.1282   7.1427   7.1487   7.1572   7.1601   7.1628   7.1710
     7.1757   7.1858   7.1898   7.1922   7.2048   7.2117   7.2324   7.2344
    11.3070  11.3130

          k =-0.1667-0.1667 0.1667 ( 21266 PWs)   bands (ev):

    -3.0480  -1.5717  -1.5496  -1.5196  -0.1036  -0.0860  -0.0717  -0.0529
    -0.0296  -0.0214   1.3534   1.3912   1.3982   1.4081   1.4231   1.4363
     1.4611   2.8279   2.8449   2.8544   2.8677   2.8810   2.9083   4.2223
     4.2281   4.2326   4.3198   4.3254   4.3302   5.5877   5.6245   5.6305
     5.6438   5.6631   5.6811   5.7523   7.0176   7.0271   7.0389   7.0456
     7.0582   7.0637   7.0776   7.0914   7.1123   7.3931   7.3990   7.4048
     8.4423   8.4553   8.4679   8.4767   8.4845   8.5023   8.7781   8.7933
     8.8077   8.8218

          k =-0.1667 0.1667-0.1667 ( 21266 PWs)   bands (ev):

    -3.0479  -1.5777  -1.5472  -1.5157  -0.1080  -0.0904  -0.0666  -0.0500
    -0.0352  -0.0153   1.3649   1.3754   1.3932   1.4069   1.4261   1.4432
     1.4617   2.8292   2.8411   2.8505   2.8724   2.8856   2.9054   4.2181
     4.2270   4.2361   4.3157   4.3262   4.3359   5.6010   5.6077   5.6232
     5.6386   5.6687   5.6894   5.7536   7.0200   7.0239   7.0332   7.0417
     7.0599   7.0721   7.0820   7.0901   7.1105   7.3882   7.3992   7.4083
     8.4407   8.4501   8.4583   8.4855   8.4917   8.5032   8.7785   8.7900
     8.8023   8.8255

          k = 0.1667-0.1667-0.1667 ( 21266 PWs)   bands (ev):

    -3.0480  -1.5738  -1.5544  -1.5121  -0.1090  -0.0862  -0.0692  -0.0640
    -0.0468   0.0106   1.3662   1.3735   1.3864   1.4107   1.4216   1.4336
     1.4790   2.8187   2.8417   2.8494   2.8686   2.8828   2.9227   4.2167
     4.2275   4.2372   4.3147   4.3258   4.3365   5.5976   5.6108   5.6269
     5.6437   5.6608   5.6909   5.7529   7.0074   7.0173   7.0326   7.0408
     7.0548   7.0704   7.0885   7.0988   7.1193   7.3892   7.3992   7.4115
     8.4329   8.4543   8.4612   8.4830   8.4884   8.5046   8.7829   8.7885
     8.7978   8.8207

          k =-0.1667 0.1667 0.5000 ( 21228 PWs)   bands (ev):

    -2.5607  -2.5313  -1.0773  -1.0539  -1.0481  -1.0193   0.3884   0.4037
     0.4232   0.4406   0.4561   0.4738   1.8607   1.8819   1.8905   1.8973
     1.9123   1.9277   3.3152   3.3227   3.3347   3.3455   3.3591   3.3659
     4.6727   4.6909   4.7040   4.7189   4.7483   4.7581   4.7627   4.7752
     4.8096   4.8243   6.1039   6.1296   6.1331   6.1640   6.2022   6.2169
     6.2224   6.2354   7.5091   7.5232   7.5397   7.5573   7.6256   7.6414
     7.8258   7.8449   7.8547   7.8748   8.9546   8.9660   8.9758   8.9851
     9.3093   9.3226

          k =-0.5000-0.1667 0.1667 ( 21228 PWs)   bands (ev):

    -2.5621  -2.5297  -1.0852  -1.0512  -1.0424  -1.0204   0.3923   0.4103
     0.4236   0.4405   0.4522   0.4672   1.8659   1.8776   1.8859   1.8991
     1.9174   1.9251   3.3125   3.3236   3.3370   3.3473   3.3545   3.3666
     4.6800   4.6821   4.7058   4.7211   4.7463   4.7603   4.7729   4.7866
     4.7955   4.8150   6.0963   6.1304   6.1417   6.1646   6.2040   6.2147
     6.2175   6.2385   7.5041   7.5251   7.5453   7.5566   7.6260   7.6416
     7.8303   7.8356   7.8552   7.8760   8.9529   8.9672   8.9697   8.9933
     9.3036   9.3238

          k = 0.5000-0.1667-0.1667 ( 21228 PWs)   bands (ev):

    -2.5621  -2.5297  -1.0889  -1.0514  -1.0425  -1.0157   0.3758   0.4078
     0.4207   0.4421   0.4505   0.4898   1.8685   1.8725   1.8856   1.8978
     1.9191   1.9259   3.3062   3.3175   3.3318   3.3472   3.3611   3.3790
     4.6726   4.6845   4.7037   4.7178   4.7372   4.7518   4.7720   4.7881
     4.8096   4.8296   6.0908   6.1304   6.1402   6.1651   6.2023   6.2162
     6.2247   6.2360   7.5056   7.5214   7.5336   7.5644   7.6267   7.6410
     7.8240   7.8443   7.8595   7.8755   8.9553   8.9657   8.9772   8.9862
     9.3052   9.3209

          k =-0.1667-0.5000 0.1667 ( 21228 PWs)   bands (ev):

    -2.5503  -2.5417  -1.0748  -1.0697  -1.0371  -1.0175   0.3952   0.4039
     0.4250   0.4288   0.4539   0.4816   1.8708   1.8818   1.8921   1.8969
     1.9066   1.9193   3.3109   3.3172   3.3380   3.3476   3.3592   3.3693
     4.6904   4.6946   4.6986   4.7033   4.7432   4.7501   4.7741   4.7763
     4.8144   4.8236   6.1066   6.1119   6.1457   6.1667   6.2144   6.2166
     6.2198   6.2244   7.5116   7.5280   7.5411   7.5464   7.6307   7.6363
     7.8435   7.8458   7.8539   7.8579   8.9670   8.9681   8.9734   8.9751
     9.3100   9.3293

          k =-0.1667 0.5000-0.1667 ( 21228 PWs)   bands (ev):

    -2.5503  -2.5417  -1.0785  -1.0718  -1.0303  -1.0183   0.3961   0.4075
     0.4262   0.4341   0.4517   0.4717   1.8681   1.8743   1.8924   1.9069
     1.9110   1.9165   3.3068   3.3139   3.3361   3.3455   3.3672   3.3724
     4.6868   4.6929   4.6952   4.7100   4.7405   4.7464   4.7848   4.7931
     4.8025   4.8145   6.1034   6.1118   6.1504   6.1642   6.2118   6.2152
     6.2186   6.2326   7.5162   7.5231   7.5397   7.5520   7.6303   7.6353
     7.8439   7.8450   7.8464   7.8628   8.9628   8.9652   8.9716   8.9825
     9.3154   9.3261

          k =-0.5000 0.1667 0.5000 ( 21296 PWs)   bands (ev):

    -2.0896  -2.0570  -2.0297  -2.0042  -0.5993  -0.5660  -0.5392  -0.5127
     0.8772   0.9086   0.9366   0.9622   2.3242   2.3323   2.3491   2.3768
     2.3885   2.3928   2.4081   2.4315   3.7628   3.7699   3.7877   3.8160
     3.8288   3.8309   3.8470   3.8701   5.1203   5.1540   5.1839   5.2101
     5.2218   5.2310   5.2465   5.2746   5.2861   5.2932   5.3063   5.3307
     6.6407   6.6553   6.6715   6.6836   8.0687   8.0854   8.0993   8.1134
     8.3633   8.3935   8.4145   8.4402   9.3258   9.3350   9.3525   9.3864
     9.3978   9.4061

          k =-0.5000 0.5000 0.1667 ( 21296 PWs)   bands (ev):

    -2.0716  -2.0568  -2.0292  -2.0250  -0.5796  -0.5649  -0.5363  -0.5338
     0.8945   0.9090   0.9381   0.9417   2.3305   2.3457   2.3523   2.3706
     2.3795   2.3988   2.4088   2.4157   3.7688   3.7854   3.7913   3.8098
     3.8179   3.8370   3.8498   3.8551   5.1392   5.1556   5.1842   5.1870
     5.2303   5.2429   5.2518   5.2686   5.2782   5.2975   5.3057   5.3149
     6.6501   6.6579   6.6717   6.6739   8.0773   8.0856   8.1010   8.1029
     8.3792   8.3926   8.4194   8.4216   9.3303   9.3489   9.3562   9.3770
     9.3873   9.4145

     the Fermi energy is     7.8089 ev

!    total energy              =   -1264.06191515 Ry
     Harris-Foulkes estimate   =   -1264.06191578 Ry
     estimated scf accuracy    <       0.00000071 Ry

     total all-electron energy =    -15540.630892 Ry

     The total energy is the sum of the following terms:

     one-electron contribution =     101.17736658 Ry
     hartree contribution      =       0.22078622 Ry
     xc contribution           =     -82.91297927 Ry
     ewald contribution        =    -172.86920614 Ry
     one-center paw contrib.   =   -1109.68085761 Ry
     smearing contrib. (-TS)   =       0.00297508 Ry

     convergence has been achieved in  13 iterations

     Forces acting on atoms (cartesian axes, Ry/au):

     atom    1 type  1   force =    -0.00007830   -0.00003418    0.00021593
     atom    2 type  1   force =    -0.00118385    0.00246647    0.00090563
     atom    3 type  1   force =     0.00269642   -0.00018255   -0.00641736
     atom    4 type  1   force =    -0.00023532   -0.00194544   -0.00407047
     atom    5 type  1   force =    -0.00541471   -0.00464808    0.00387776
     atom    6 type  1   force =    -0.00169872    0.00536700   -0.00008479
     atom    7 type  1   force =    -0.00165318   -0.00624402    0.00402249
     atom    8 type  1   force =     0.00040951   -0.00091130   -0.00305345
     atom    9 type  1   force =     0.00008852   -0.00093147    0.00153380
     atom   10 type  1   force =    -0.00193103   -0.00082092   -0.00744470
     atom   11 type  1   force =    -0.00304283   -0.00317215   -0.00488213
     atom   12 type  1   force =    -0.00107428    0.00046687   -0.00087289
     atom   13 type  1   force =    -0.00208181   -0.00405331   -0.00045708
     atom   14 type  1   force =    -0.00028897    0.00186739    0.00508354
     atom   15 type  1   force =    -0.00651087    0.00345123    0.00605739
     atom   16 type  1   force =     0.00711171    0.00603264    0.00162282
     atom   17 type  1   force =    -0.00520301    0.00062268    0.00098323
     atom   18 type  1   force =     0.00230754   -0.00070792    0.00513315
     atom   19 type  1   force =     0.00609094    0.00266964   -0.00101464
     atom   20 type  1   force =     0.00091558    0.00242713    0.00074511
     atom   21 type  1   force =     0.00235875   -0.00660071    0.00131142
     atom   22 type  1   force =    -0.00146368    0.00677608    0.00155637
     atom   23 type  1   force =     0.00144150   -0.00112878   -0.00241429
     atom   24 type  1   force =     0.00152172    0.00158011   -0.00098972
     atom   25 type  1   force =     0.00108717   -0.00211859    0.00404653
     atom   26 type  1   force =     0.00379587   -0.00272241   -0.00300236
     atom   27 type  1   force =    -0.00196862    0.00035518    0.00127679
     atom   28 type  1   force =    -0.00108114    0.00289612   -0.00088643
     atom   29 type  1   force =     0.01009928   -0.00408092   -0.00132303
     atom   30 type  1   force =    -0.00307097    0.00050652    0.00292143
     atom   31 type  1   force =    -0.00101913   -0.00071575   -0.00410315
     atom   32 type  1   force =    -0.00092407    0.00353344   -0.00027691

     Total force =     0.032422     Total SCF correction =     0.001120


     Computing stress (Cartesian axis) and pressure

          total   stress  (Ry/bohr**3)                   (kbar)     P=   -0.78
  -0.00000516  -0.00000020  -0.00000019         -0.76     -0.03     -0.03
  -0.00000020  -0.00000521   0.00000021         -0.03     -0.77      0.03
  -0.00000019   0.00000021  -0.00000561         -0.03      0.03     -0.83


     Writing output data file sMzFFNiHoTSgGHtw.save/

     init_run     :     28.34s CPU     28.62s WALL (       1 calls)
     electrons    :    489.33s CPU    499.08s WALL (       1 calls)
     forces       :     12.15s CPU     12.23s WALL (       1 calls)
     stress       :     15.28s CPU     15.33s WALL (       1 calls)

     Called by init_run:
     wfcinit      :     27.67s CPU     27.91s WALL (       1 calls)
     potinit      :      0.33s CPU      0.34s WALL (       1 calls)
     hinit0       :      0.15s CPU      0.15s WALL (       1 calls)

     Called by electrons:
     c_bands      :    432.37s CPU    441.15s WALL (      14 calls)
     sum_band     :     50.77s CPU     51.55s WALL (      14 calls)
     v_of_rho     :      0.66s CPU      0.69s WALL (      14 calls)
     newd         :      2.12s CPU      2.16s WALL (      14 calls)
     PAW_pot      :      3.66s CPU      3.66s WALL (      14 calls)
     mix_rho      :      0.18s CPU      0.19s WALL (      14 calls)

     Called by c_bands:
     init_us_2    :      2.82s CPU      2.92s WALL (     434 calls)
     cegterg      :    427.18s CPU    432.43s WALL (     196 calls)

     Called by sum_band:
     sum_band:bec :      0.04s CPU      0.04s WALL (     196 calls)
     addusdens    :      1.91s CPU      2.09s WALL (      14 calls)

     Called by *egterg:
     h_psi        :    248.89s CPU    252.42s WALL (     699 calls)
     s_psi        :     96.96s CPU     97.43s WALL (     699 calls)
     g_psi        :      0.34s CPU      0.34s WALL (     489 calls)
     cdiaghg      :      5.92s CPU      5.93s WALL (     671 calls)

     Called by h_psi:
     h_psi:pot    :    248.28s CPU    251.41s WALL (     699 calls)
     h_psi:calbec :    102.34s CPU    102.63s WALL (     699 calls)
     vloc_psi     :     46.69s CPU     49.41s WALL (     699 calls)
     add_vuspsi   :     99.24s CPU     99.36s WALL (     699 calls)

     General routines
     calbec       :    154.60s CPU    155.00s WALL (     965 calls)
     fft          :      0.32s CPU      0.35s WALL (     180 calls)
     ffts         :      0.03s CPU      0.03s WALL (      14 calls)
     fftw         :     50.77s CPU     53.70s WALL (   72598 calls)

     Parallel routines
     fft_scatt_xy :      6.27s CPU      6.66s WALL (   72792 calls)
     fft_scatt_yz :     16.25s CPU     17.23s WALL (   72792 calls)

     PWSCF        :   9m 5.52s CPU   9m16.15s WALL


   This run was terminated on:   2:43: 9  19Jul2021            

=------------------------------------------------------------------------------=
   JOB DONE.
=------------------------------------------------------------------------------=
