
     Program PWSCF v.6.4.1 starts on 19Jul2021 at  8:17: 0 

     This program is part of the open-source Quantum ESPRESSO suite
     for quantum simulation of materials; please cite
         "P. Giannozzi et al., J. Phys.:Condens. Matter 21 395502 (2009);
         "P. Giannozzi et al., J. Phys.:Condens. Matter 29 465901 (2017);
          URL http://www.quantum-espresso.org", 
     in publications or presentations arising from this work. More details at
     http://www.quantum-espresso.org/quote

     Parallel version (MPI), running on     4 processors

     MPI processes distributed on     1 nodes
     R & G space division:  proc/nbgrp/npool/nimage =       4
     Reading input from /cloud/Code/python/qeforfit/examples/al/01/wd/configs/19/config_0003.in
Warning: card &IONS ignored
Warning: card ION_DYNAMICS = 'BFGS', ignored
Warning: card / ignored
Warning: card &CELL ignored
Warning: card CELL_DYNAMICS = 'BFGS', ignored
Warning: card CELL_FACTOR = 2.0, ignored
Warning: card PRESS = 0.0, ignored
Warning: card / ignored

     Current dimensions of program PWSCF are:
     Max number of different atomic species (ntypx) = 10
     Max number of k-points (npk) =  40000
     Max angular momentum in pseudopotentials (lmaxx) =  3
               file Al.pbe-nl-kjpaw_psl.1.0.0.UPF: wavefunction(s)  3S 3P renormalized

     Subspace diagonalization in iterative solution of the eigenvalue problem:
     a serial algorithm will be used


     Parallelization info
     --------------------
     sticks:   dense  smooth     PW     G-vecs:    dense   smooth      PW
     Min         928     928    258                42646    42646    6208
     Max         929     929    259                42649    42649    6211
     Sum        3713    3713   1033               170589   170589   24837



     bravais-lattice index     =            0
     lattice parameter (alat)  =      15.2760  a.u.
     unit-cell volume          =    3564.7580 (a.u.)^3
     number of atoms/cell      =           32
     number of atomic types    =            1
     number of electrons       =        96.00
     number of Kohn-Sham states=           58
     kinetic-energy cutoff     =      50.0000  Ry
     charge density cutoff     =     200.0000  Ry
     convergence threshold     =      1.0E-06
     mixing beta               =       0.1000
     number of iterations used =           10  TF        mixing
     Exchange-correlation      = SLA PW PBX PBC ( 1  4  3  4 0 0)

     celldm(1)=  15.276013  celldm(2)=   0.000000  celldm(3)=   0.000000
     celldm(4)=   0.000000  celldm(5)=   0.000000  celldm(6)=   0.000000

     crystal axes: (cart. coord. in units of alat)
               a(1) = (   1.000000   0.000000   0.000000 )  
               a(2) = (   0.000000   1.000000   0.000000 )  
               a(3) = (   0.000000   0.000000   1.000000 )  

     reciprocal axes: (cart. coord. in units 2 pi/alat)
               b(1) = (  1.000000  0.000000  0.000000 )  
               b(2) = (  0.000000  1.000000  0.000000 )  
               b(3) = (  0.000000  0.000000  1.000000 )  


     PseudoPot. # 1 for Al read from file:
     /opt/pp/Al.pbe-nl-kjpaw_psl.1.0.0.UPF
     MD5 check sum: 1b67f78b73fe58c7924490f171ce8a1e
     Pseudo is Projector augmented-wave + core cor, Zval =  3.0
     Generated using "atomic" code by A. Dal Corso v.6.3
     Shape of augmentation charge: PSQ
     Using radial grid of 1135 points,  4 beta functions with: 
                l(1) =   0
                l(2) =   0
                l(3) =   1
                l(4) =   1
     Q(r) pseudized with 0 coefficients 


     atomic species   valence    mass     pseudopotential
        Al             3.00    26.98200     Al( 1.00)

     No symmetry found



   Cartesian axes

     site n.     atom                  positions (alat units)
         1           Al  tau(   1) = (  -0.0086395  -0.0076273  -0.0062231  )
         2           Al  tau(   2) = (   0.2440543   0.2375865  -0.0061683  )
         3           Al  tau(   3) = (   0.2399165  -0.0071238   0.2492341  )
         4           Al  tau(   4) = (  -0.0083354   0.2473919   0.2465517  )
         5           Al  tau(   5) = (  -0.0017181  -0.0018065   0.4892891  )
         6           Al  tau(   6) = (   0.2450098   0.2381278   0.4922306  )
         7           Al  tau(   7) = (   0.2428112  -0.0041634   0.7394581  )
         8           Al  tau(   8) = (  -0.0065378   0.2448709   0.7471857  )
         9           Al  tau(   9) = (  -0.0021582   0.4947308  -0.0082258  )
        10           Al  tau(  10) = (   0.2454939   0.7463723   0.0018702  )
        11           Al  tau(  11) = (   0.2466813   0.4947561   0.2481678  )
        12           Al  tau(  12) = (  -0.0069357   0.7432373   0.2427524  )
        13           Al  tau(  13) = (  -0.0052126   0.4958913   0.4945201  )
        14           Al  tau(  14) = (   0.2412817   0.7436619   0.4890409  )
        15           Al  tau(  15) = (   0.2502196   0.4870909   0.7348513  )
        16           Al  tau(  16) = (  -0.0157250   0.7350792   0.7419801  )
        17           Al  tau(  17) = (   0.4970315  -0.0102645  -0.0087846  )
        18           Al  tau(  18) = (   0.7400414   0.2444016  -0.0134494  )
        19           Al  tau(  19) = (   0.7333967  -0.0101562   0.2439950  )
        20           Al  tau(  20) = (   0.4915483   0.2412176   0.2381069  )
        21           Al  tau(  21) = (   0.4902521  -0.0008275   0.4914867  )
        22           Al  tau(  22) = (   0.7437847   0.2348468   0.4909996  )
        23           Al  tau(  23) = (   0.7430021  -0.0095026   0.7427602  )
        24           Al  tau(  24) = (   0.4924178   0.2394190   0.7420206  )
        25           Al  tau(  25) = (   0.4886077   0.4949181  -0.0131155  )
        26           Al  tau(  26) = (   0.7366821   0.7444914  -0.0012903  )
        27           Al  tau(  27) = (   0.7445605   0.4873890   0.2408533  )
        28           Al  tau(  28) = (   0.4942502   0.7371254   0.2471651  )
        29           Al  tau(  29) = (   0.4843736   0.4946082   0.4931140  )
        30           Al  tau(  30) = (   0.7461218   0.7418381   0.4886574  )
        31           Al  tau(  31) = (   0.7408766   0.4923715   0.7454878  )
        32           Al  tau(  32) = (   0.4924852   0.7409122   0.7401702  )

     number of k points=    14  Marzari-Vanderbilt smearing, width (Ry)=  0.0200
                       cart. coord. in units 2pi/alat
        k(    1) = (   0.1666667   0.1666667   0.1666667), wk =   0.1481481
        k(    2) = (   0.1666667   0.1666667  -0.5000000), wk =   0.1481481
        k(    3) = (   0.1666667  -0.5000000  -0.5000000), wk =   0.1481481
        k(    4) = (  -0.5000000  -0.5000000  -0.5000000), wk =   0.0740741
        k(    5) = (  -0.1666667  -0.1666667   0.1666667), wk =   0.1481481
        k(    6) = (  -0.1666667   0.1666667  -0.1666667), wk =   0.1481481
        k(    7) = (   0.1666667  -0.1666667  -0.1666667), wk =   0.1481481
        k(    8) = (  -0.1666667   0.1666667   0.5000000), wk =   0.1481481
        k(    9) = (  -0.5000000  -0.1666667   0.1666667), wk =   0.1481481
        k(   10) = (   0.5000000  -0.1666667  -0.1666667), wk =   0.1481481
        k(   11) = (  -0.1666667  -0.5000000   0.1666667), wk =   0.1481481
        k(   12) = (  -0.1666667   0.5000000  -0.1666667), wk =   0.1481481
        k(   13) = (  -0.5000000   0.1666667   0.5000000), wk =   0.1481481
        k(   14) = (  -0.5000000   0.5000000   0.1666667), wk =   0.1481481

     Dense  grid:   170589 G-vectors     FFT dimensions: (  72,  72,  72)

     Estimated max dynamical RAM per process >     208.44 MB

     Estimated total dynamical RAM >     833.78 MB

     Initial potential from superposition of free atoms

     starting charge   95.92671, renormalised to   96.00000
     Starting wfcs are  128 randomized atomic wfcs
     Checking if some PAW data can be deallocated... 

     total cpu time spent up to now is       28.6 secs

     Self-consistent Calculation

     iteration #  1     ecut=    50.00 Ry     beta= 0.10
     Davidson diagonalization with overlap
     ethr =  1.00E-02,  avg # of iterations =  3.0

     Threshold (ethr) on eigenvalues was too large:
     Diagonalizing with lowered threshold

     Davidson diagonalization with overlap
     ethr =  2.09E-04,  avg # of iterations =  3.6

     total cpu time spent up to now is      111.4 secs

     total energy              =   -1264.09617095 Ry
     Harris-Foulkes estimate   =   -1264.10308821 Ry
     estimated scf accuracy    <       0.20012082 Ry

     iteration #  2     ecut=    50.00 Ry     beta= 0.10
     Davidson diagonalization with overlap
     ethr =  2.08E-04,  avg # of iterations =  1.0

     total cpu time spent up to now is      138.2 secs

     total energy              =   -1264.04154943 Ry
     Harris-Foulkes estimate   =   -1264.09710292 Ry
     estimated scf accuracy    <       0.17413679 Ry

     iteration #  3     ecut=    50.00 Ry     beta= 0.10
     Davidson diagonalization with overlap
     ethr =  1.81E-04,  avg # of iterations =  1.0

     total cpu time spent up to now is      164.9 secs

     total energy              =   -1264.04805088 Ry
     Harris-Foulkes estimate   =   -1264.04808531 Ry
     estimated scf accuracy    <       0.00090995 Ry

     iteration #  4     ecut=    50.00 Ry     beta= 0.10
     Davidson diagonalization with overlap
     c_bands:  2 eigenvalues not converged
     ethr =  9.48E-07,  avg # of iterations =  6.5

     total cpu time spent up to now is      235.5 secs

     total energy              =   -1264.05014715 Ry
     Harris-Foulkes estimate   =   -1264.05013381 Ry
     estimated scf accuracy    <       0.00296590 Ry

     iteration #  5     ecut=    50.00 Ry     beta= 0.10
     Davidson diagonalization with overlap
     ethr =  9.48E-07,  avg # of iterations =  2.4

     total cpu time spent up to now is      262.9 secs

     total energy              =   -1264.04954507 Ry
     Harris-Foulkes estimate   =   -1264.05014889 Ry
     estimated scf accuracy    <       0.00301767 Ry

     iteration #  6     ecut=    50.00 Ry     beta= 0.10
     Davidson diagonalization with overlap
     c_bands:  1 eigenvalues not converged
     ethr =  9.48E-07,  avg # of iterations =  6.6

     total cpu time spent up to now is      299.9 secs

     total energy              =   -1264.04961002 Ry
     Harris-Foulkes estimate   =   -1264.04977609 Ry
     estimated scf accuracy    <       0.00054713 Ry

     iteration #  7     ecut=    50.00 Ry     beta= 0.10
     Davidson diagonalization with overlap
     ethr =  5.70E-07,  avg # of iterations =  5.1

     total cpu time spent up to now is      363.5 secs

     total energy              =   -1264.04672151 Ry
     Harris-Foulkes estimate   =   -1264.05147760 Ry
     estimated scf accuracy    <       0.01388729 Ry

     iteration #  8     ecut=    50.00 Ry     beta= 0.10
     Davidson diagonalization with overlap
     ethr =  5.70E-07,  avg # of iterations =  4.8

     total cpu time spent up to now is      428.9 secs

     total energy              =   -1264.04913672 Ry
     Harris-Foulkes estimate   =   -1264.04953180 Ry
     estimated scf accuracy    <       0.00128858 Ry

     iteration #  9     ecut=    50.00 Ry     beta= 0.10
     Davidson diagonalization with overlap
     ethr =  5.70E-07,  avg # of iterations =  3.0

     total cpu time spent up to now is      465.5 secs

     total energy              =   -1264.04935407 Ry
     Harris-Foulkes estimate   =   -1264.04935279 Ry
     estimated scf accuracy    <       0.00004370 Ry

     iteration # 10     ecut=    50.00 Ry     beta= 0.10
     Davidson diagonalization with overlap
     ethr =  4.55E-08,  avg # of iterations =  3.5

     total cpu time spent up to now is      498.9 secs

     total energy              =   -1264.04934642 Ry
     Harris-Foulkes estimate   =   -1264.04936043 Ry
     estimated scf accuracy    <       0.00006814 Ry

     iteration # 11     ecut=    50.00 Ry     beta= 0.10
     Davidson diagonalization with overlap
     ethr =  4.55E-08,  avg # of iterations =  1.2

     total cpu time spent up to now is      525.9 secs

     total energy              =   -1264.04934630 Ry
     Harris-Foulkes estimate   =   -1264.04934919 Ry
     estimated scf accuracy    <       0.00001816 Ry

     iteration # 12     ecut=    50.00 Ry     beta= 0.10
     Davidson diagonalization with overlap
     ethr =  1.89E-08,  avg # of iterations =  3.0

     total cpu time spent up to now is      554.9 secs

     total energy              =   -1264.04934792 Ry
     Harris-Foulkes estimate   =   -1264.04934776 Ry
     estimated scf accuracy    <       0.00000315 Ry

     iteration # 13     ecut=    50.00 Ry     beta= 0.10
     Davidson diagonalization with overlap
     ethr =  3.28E-09,  avg # of iterations =  3.1

     total cpu time spent up to now is      588.6 secs

     total energy              =   -1264.04934817 Ry
     Harris-Foulkes estimate   =   -1264.04934836 Ry
     estimated scf accuracy    <       0.00000191 Ry

     iteration # 14     ecut=    50.00 Ry     beta= 0.10
     Davidson diagonalization with overlap
     ethr =  1.99E-09,  avg # of iterations =  1.0

     total cpu time spent up to now is      615.5 secs

     End of self-consistent calculation

          k = 0.1667 0.1667 0.1667 ( 21266 PWs)   bands (ev):

    -3.0559  -1.6175  -1.5598  -1.4881  -0.1602  -0.1361  -0.0878  -0.0545
    -0.0267   0.0563   1.3003   1.3349   1.3850   1.4169   1.4358   1.4551
     1.5044   2.7611   2.8205   2.8490   2.8754   2.8994   2.9540   4.1995
     4.2148   4.2342   4.3075   4.3279   4.3426   5.5543   5.5615   5.6337
     5.6489   5.6831   5.7067   5.7537   6.9572   6.9743   6.9912   7.0380
     7.0547   7.0749   7.0937   7.1164   7.1666   7.3795   7.3896   7.4145
     8.4015   8.4105   8.4516   8.4799   8.5100   8.5265   8.7466   8.7604
     8.7871   8.8257

          k = 0.1667 0.1667-0.5000 ( 21228 PWs)   bands (ev):

    -2.5849  -2.5243  -1.1002  -1.0828  -1.0413  -1.0073   0.3298   0.3803
     0.4195   0.4436   0.4787   0.4914   1.8462   1.8543   1.8794   1.8929
     1.9287   1.9415   3.2830   3.3077   3.3229   3.3352   3.3660   3.3954
     4.6447   4.6550   4.6881   4.7076   4.7373   4.7629   4.7673   4.7975
     4.8105   4.8377   6.0834   6.0987   6.1234   6.1745   6.2007   6.2134
     6.2267   6.2511   7.4796   7.4976   7.5372   7.5755   7.6141   7.6444
     7.8060   7.8296   7.8651   7.8867   8.9396   8.9451   8.9702   8.9919
     9.2875   9.2997

          k = 0.1667-0.5000-0.5000 ( 21296 PWs)   bands (ev):

    -2.1101  -2.0869  -2.0248  -1.9944  -0.6181  -0.5908  -0.5327  -0.4998
     0.8575   0.8850   0.9417   0.9744   2.2758   2.3069   2.3220   2.3460
     2.3714   2.4224   2.4420   2.4636   3.7132   3.7488   3.7668   3.7894
     3.8086   3.8636   3.8847   3.9001   5.1008   5.1310   5.1705   5.1867
     5.2059   5.2157   5.2337   5.2539   5.2760   5.3237   5.3459   5.3620
     6.6270   6.6417   6.6723   6.6899   8.0549   8.0722   8.0971   8.1157
     8.3422   8.3687   8.4168   8.4496   9.2626   9.3033   9.3280   9.3542
     9.3781   9.4270

          k =-0.5000-0.5000-0.5000 ( 21368 PWs)   bands (ev):

    -1.6693  -1.6488  -1.5861  -1.5694  -1.5400  -1.4986  -1.4864  -1.4255
     2.6683   2.6735   2.7073   2.7214   2.7519   2.7752   2.7794   2.8038
     2.8107   2.8250   2.8347   2.8453   2.8545   2.8662   2.8774   2.8835
     2.9012   2.9238   2.9404   2.9431   2.9641   3.0035   3.0353   3.0861
     6.9679   6.9912   7.0106   7.0246   7.0500   7.0669   7.0761   7.0825
     7.0847   7.1025   7.1315   7.1433   7.1601   7.1671   7.1727   7.1879
     7.1969   7.2187   7.2248   7.2310   7.2560   7.2684   7.3102   7.3140
    11.2481  11.2559

          k =-0.1667-0.1667 0.1667 ( 21266 PWs)   bands (ev):

    -3.0560  -1.6042  -1.5620  -1.5019  -0.1540  -0.1176  -0.0886  -0.0518
    -0.0063   0.0099   1.2918   1.3663   1.3814   1.4013   1.4298   1.4573
     1.5052   2.7886   2.8218   2.8411   2.8672   2.8940   2.9473   4.2098
     4.2231   4.2307   4.3112   4.3217   4.3297   5.5309   5.6043   5.6162
     5.6438   5.6795   5.7166   5.7488   6.9710   6.9873   7.0119   7.0263
     7.0527   7.0625   7.0886   7.1137   7.1552   7.3825   7.3948   7.4076
     8.4078   8.4323   8.4583   8.4742   8.4890   8.5259   8.7411   8.7692
     8.7948   8.8211

          k =-0.1667 0.1667-0.1667 ( 21266 PWs)   bands (ev):

    -3.0559  -1.6162  -1.5568  -1.4935  -0.1619  -0.1275  -0.0794  -0.0458
    -0.0181   0.0229   1.3140   1.3357   1.3705   1.3982   1.4356   1.4706
     1.5088   2.7890   2.8144   2.8333   2.8779   2.9032   2.9418   4.2010
     4.2185   4.2369   4.3034   4.3249   4.3439   5.5556   5.5703   5.6017
     5.6328   5.6882   5.7324   5.7561   6.9764   6.9810   7.0023   7.0217
     7.0499   7.0789   7.0963   7.1164   7.1494   7.3719   7.3960   7.4127
     8.4031   8.4222   8.4375   8.4950   8.5042   8.5272   8.7387   8.7664
     8.7898   8.8248

          k = 0.1667-0.1667-0.1667 ( 21266 PWs)   bands (ev):

    -3.0559  -1.6083  -1.5701  -1.4875  -0.1655  -0.1172  -0.0837  -0.0728
    -0.0392   0.0721   1.3172   1.3321   1.3578   1.4052   1.4273   1.4524
     1.5395   2.7698   2.8159   2.8308   2.8690   2.8973   2.9761   4.1975
     4.2207   4.2392   4.3018   4.3233   4.3435   5.5514   5.5773   5.6080
     5.6415   5.6763   5.7367   5.7517   6.9475   6.9674   7.0003   7.0191
     7.0463   7.0716   7.1099   7.1305   7.1662   7.3779   7.3958   7.4237
     8.3872   8.4302   8.4437   8.4840   8.4958   8.5284   8.7501   8.7629
     8.7799   8.8270

          k =-0.1667 0.1667 0.5000 ( 21228 PWs)   bands (ev):

    -2.5849  -2.5243  -1.1126  -1.0682  -1.0525  -0.9974   0.3378   0.3706
     0.4091   0.4433   0.4732   0.5088   1.8216   1.8640   1.8818   1.8960
     1.9234   1.9566   3.2845   3.2992   3.3239   3.3450   3.3721   3.3855
     4.6298   4.6701   4.6938   4.7172   4.7282   4.7474   4.7557   4.7741
     4.8325   4.8603   6.0665   6.1164   6.1245   6.1739   6.1920   6.2192
     6.2273   6.2502   7.4734   7.5045   7.5369   7.5713   7.6119   7.6439
     7.8015   7.8385   7.8567   7.8985   8.9313   8.9543   8.9734   8.9915
     9.2806   9.3058

          k =-0.5000-0.1667 0.1667 ( 21228 PWs)   bands (ev):

    -2.5878  -2.5206  -1.1292  -1.0613  -1.0428  -0.9996   0.3450   0.3825
     0.4099   0.4430   0.4680   0.4957   1.8307   1.8548   1.8726   1.9014
     1.9359   1.9496   3.2781   3.3014   3.3284   3.3474   3.3628   3.3861
     4.6479   4.6544   4.6997   4.7163   4.7246   4.7575   4.7754   4.7981
     4.8022   4.8365   6.0518   6.1186   6.1427   6.1770   6.1934   6.2122
     6.2194   6.2554   7.4658   7.5092   7.5490   7.5702   7.6149   7.6415
     7.8071   7.8184   7.8585   7.8991   8.9284   8.9579   8.9610   9.0092
     9.2706   9.3101

          k = 0.5000-0.1667-0.1667 ( 21228 PWs)   bands (ev):

    -2.5878  -2.5206  -1.1360  -1.0602  -1.0445  -0.9896   0.3128   0.3782
     0.4040   0.4487   0.4612   0.5414   1.8351   1.8458   1.8737   1.8945
     1.9368   1.9533   3.2665   3.2892   3.3169   3.3491   3.3762   3.4111
     4.6282   4.6500   4.6900   4.7005   4.7212   4.7516   4.7650   4.8043
     4.8346   4.8726   6.0388   6.1191   6.1376   6.1694   6.1951   6.2129
     6.2336   6.2562   7.4669   7.4993   7.5219   7.5804   7.6196   7.6405
     7.7947   7.8391   7.8713   7.9014   8.9350   8.9551   8.9762   8.9956
     9.2717   9.3044

          k =-0.1667-0.5000 0.1667 ( 21228 PWs)   bands (ev):

    -2.5633  -2.5463  -1.1080  -1.0971  -1.0326  -0.9951   0.3539   0.3715
     0.4130   0.4213   0.4677   0.5253   1.8425   1.8642   1.8819   1.8919
     1.9117   1.9394   3.2757   3.2892   3.3289   3.3474   3.3729   3.3920
     4.6617   4.6752   4.6806   4.6975   4.7209   4.7402   4.7694   4.7753
     4.8425   4.8615   6.0717   6.0833   6.1477   6.1858   6.2066   6.2147
     6.2192   6.2354   7.4806   7.5128   7.5374   7.5463   7.6229   7.6334
     7.8327   7.8406   7.8553   7.8697   8.9560   8.9596   8.9682   8.9737
     9.2827   9.3176

          k =-0.1667 0.5000-0.1667 ( 21228 PWs)   bands (ev):

    -2.5632  -2.5463  -1.1155  -1.1023  -1.0177  -0.9963   0.3549   0.3770
     0.4146   0.4297   0.4662   0.5058   1.8375   1.8487   1.8819   1.9147
     1.9220   1.9336   3.2674   3.2817   3.3245   3.3441   3.3880   3.3995
     4.6543   4.6699   4.6808   4.7049   4.7194   4.7282   4.7845   4.8078
     4.8200   4.8471   6.0665   6.0851   6.1552   6.1771   6.2051   6.2103
     6.2219   6.2509   7.4915   7.5038   7.5381   7.5605   7.6207   7.6289
     7.8339   7.8391   7.8408   7.8729   8.9467   8.9524   8.9661   8.9876
     9.2926   9.3111

          k =-0.5000 0.1667 0.5000 ( 21296 PWs)   bands (ev):

    -2.1432  -2.0749  -2.0216  -1.9699  -0.6547  -0.5840  -0.5326  -0.4775
     0.8269   0.8896   0.9452   0.9968   2.2675   2.2844   2.3180   2.3738
     2.3968   2.4050   2.4363   2.4834   3.7048   3.7174   3.7542   3.8123
     3.8379   3.8408   3.8727   3.9194   5.0652   5.1341   5.1639   5.1784
     5.1979   5.2204   5.2464   5.2742   5.2974   5.3113   5.3357   5.3848
     6.6157   6.6436   6.6767   6.7001   8.0368   8.0685   8.0980   8.1258
     8.3143   8.3758   8.4156   8.4702   9.2623   9.2800   9.3161   9.3778
     9.3960   9.4110

          k =-0.5000 0.5000 0.1667 ( 21296 PWs)   bands (ev):

    -2.1067  -2.0774  -2.0226  -2.0115  -0.6111  -0.5828  -0.5248  -0.5194
     0.8602   0.8877   0.9480   0.9567   2.2810   2.3105   2.3235   2.3603
     2.3794   2.4168   2.4368   2.4508   3.7171   3.7509   3.7629   3.7984
     3.8153   3.8530   3.8801   3.8899   5.1029   5.1323   5.1757   5.1909
     5.2088   5.2107   5.2288   5.2632   5.2816   5.3169   5.3348   5.3536
     6.6345   6.6510   6.6772   6.6836   8.0531   8.0701   8.1011   8.1053
     8.3467   8.3729   8.4286   8.4319   9.2718   9.3063   9.3221   9.3599
     9.3847   9.4208

     the Fermi energy is     7.8036 ev

!    total energy              =   -1264.04934745 Ry
     Harris-Foulkes estimate   =   -1264.04934823 Ry
     estimated scf accuracy    <       0.00000088 Ry

     total all-electron energy =    -15540.618324 Ry

     The total energy is the sum of the following terms:

     one-electron contribution =     101.03555702 Ry
     hartree contribution      =       0.27720749 Ry
     xc contribution           =     -82.92037466 Ry
     ewald contribution        =    -172.75821708 Ry
     one-center paw contrib.   =   -1109.68734109 Ry
     smearing contrib. (-TS)   =       0.00382086 Ry

     convergence has been achieved in  14 iterations

     Forces acting on atoms (cartesian axes, Ry/au):

     atom    1 type  1   force =    -0.00015993   -0.00011458    0.00039309
     atom    2 type  1   force =    -0.00231729    0.00465976    0.00166653
     atom    3 type  1   force =     0.00559408   -0.00025263   -0.01330430
     atom    4 type  1   force =     0.00031637   -0.00372514   -0.00790961
     atom    5 type  1   force =    -0.01131302   -0.00928583    0.00789755
     atom    6 type  1   force =    -0.00322414    0.01146428   -0.00031391
     atom    7 type  1   force =    -0.00295910   -0.01209792    0.00798474
     atom    8 type  1   force =     0.00097171   -0.00181621   -0.00618461
     atom    9 type  1   force =     0.00033266   -0.00191239    0.00329258
     atom   10 type  1   force =    -0.00346329   -0.00124826   -0.01372612
     atom   11 type  1   force =    -0.00651973   -0.00650237   -0.01006485
     atom   12 type  1   force =    -0.00210557    0.00090272   -0.00171943
     atom   13 type  1   force =    -0.00383539   -0.00807495   -0.00117311
     atom   14 type  1   force =    -0.00048995    0.00369789    0.01026121
     atom   15 type  1   force =    -0.01373704    0.00614723    0.01210280
     atom   16 type  1   force =     0.01352637    0.01221350    0.00321202
     atom   17 type  1   force =    -0.01055480    0.00170809    0.00155578
     atom   18 type  1   force =     0.00428913   -0.00153690    0.01020321
     atom   19 type  1   force =     0.01184764    0.00504286   -0.00173110
     atom   20 type  1   force =     0.00173416    0.00477026    0.00158837
     atom   21 type  1   force =     0.00473087   -0.01334969    0.00251670
     atom   22 type  1   force =    -0.00267016    0.01297353    0.00304540
     atom   23 type  1   force =     0.00279098   -0.00222694   -0.00474199
     atom   24 type  1   force =     0.00299441    0.00310431   -0.00192870
     atom   25 type  1   force =     0.00191493   -0.00414960    0.00814662
     atom   26 type  1   force =     0.00778678   -0.00572941   -0.00608668
     atom   27 type  1   force =    -0.00405517    0.00104757    0.00246918
     atom   28 type  1   force =    -0.00203114    0.00568120   -0.00172233
     atom   29 type  1   force =     0.02067640   -0.00793569   -0.00291745
     atom   30 type  1   force =    -0.00608668    0.00093323    0.00577908
     atom   31 type  1   force =    -0.00221643   -0.00145195   -0.00801934
     atom   32 type  1   force =    -0.00176765    0.00706407   -0.00057135

     Total force =     0.064694     Total SCF correction =     0.001290


     Computing stress (Cartesian axis) and pressure

          total   stress  (Ry/bohr**3)                   (kbar)     P=    0.68
   0.00000535  -0.00000074  -0.00000090          0.79     -0.11     -0.13
  -0.00000074   0.00000486   0.00000071         -0.11      0.72      0.10
  -0.00000090   0.00000071   0.00000370         -0.13      0.10      0.54


     Writing output data file mchOsKZIgoSmioml.save/

     init_run     :     28.02s CPU     28.23s WALL (       1 calls)
     electrons    :    578.79s CPU    586.88s WALL (       1 calls)
     forces       :     12.22s CPU     12.26s WALL (       1 calls)
     stress       :     15.25s CPU     15.26s WALL (       1 calls)

     Called by init_run:
     wfcinit      :     27.35s CPU     27.53s WALL (       1 calls)
     potinit      :      0.32s CPU      0.33s WALL (       1 calls)
     hinit0       :      0.15s CPU      0.15s WALL (       1 calls)

     Called by electrons:
     c_bands      :    518.78s CPU    525.98s WALL (      15 calls)
     sum_band     :     53.46s CPU     54.26s WALL (      15 calls)
     v_of_rho     :      0.70s CPU      0.74s WALL (      15 calls)
     newd         :      2.23s CPU      2.28s WALL (      15 calls)
     PAW_pot      :      3.85s CPU      3.85s WALL (      15 calls)
     mix_rho      :      0.21s CPU      0.22s WALL (      15 calls)

     Called by c_bands:
     init_us_2    :      3.03s CPU      3.10s WALL (     462 calls)
     cegterg      :    513.24s CPU    520.03s WALL (     210 calls)

     Called by sum_band:
     sum_band:bec :      0.05s CPU      0.05s WALL (     210 calls)
     addusdens    :      1.99s CPU      2.25s WALL (      15 calls)

     Called by *egterg:
     h_psi        :    286.74s CPU    291.03s WALL (     906 calls)
     s_psi        :    113.76s CPU    114.31s WALL (     906 calls)
     g_psi        :      0.41s CPU      0.41s WALL (     682 calls)
     cdiaghg      :      7.77s CPU      7.78s WALL (     878 calls)

     Called by h_psi:
     h_psi:pot    :    286.03s CPU    289.77s WALL (     906 calls)
     h_psi:calbec :    117.73s CPU    118.00s WALL (     906 calls)
     vloc_psi     :     52.32s CPU     55.60s WALL (     906 calls)
     add_vuspsi   :    115.97s CPU    116.17s WALL (     906 calls)

     General routines
     calbec       :    171.55s CPU    171.91s WALL (    1186 calls)
     fft          :      0.32s CPU      0.34s WALL (     191 calls)
     ffts         :      0.02s CPU      0.02s WALL (      15 calls)
     fftw         :     56.23s CPU     59.64s WALL (   83218 calls)

     Parallel routines
     fft_scatt_xy :      7.33s CPU      7.80s WALL (   83424 calls)
     fft_scatt_yz :     17.16s CPU     18.27s WALL (   83424 calls)

     PWSCF        :  10m34.76s CPU  10m43.31s WALL


   This run was terminated on:   8:27:43  19Jul2021            

=------------------------------------------------------------------------------=
   JOB DONE.
=------------------------------------------------------------------------------=
