
     Program PWSCF v.6.4.1 starts on 19Jul2021 at  2: 1: 0 

     This program is part of the open-source Quantum ESPRESSO suite
     for quantum simulation of materials; please cite
         "P. Giannozzi et al., J. Phys.:Condens. Matter 21 395502 (2009);
         "P. Giannozzi et al., J. Phys.:Condens. Matter 29 465901 (2017);
          URL http://www.quantum-espresso.org", 
     in publications or presentations arising from this work. More details at
     http://www.quantum-espresso.org/quote

     Parallel version (MPI), running on     4 processors

     MPI processes distributed on     1 nodes
     R & G space division:  proc/nbgrp/npool/nimage =       4
     Reading input from /cloud/Code/python/qeforfit/examples/al/01/wd/configs/11/config_0004.in
Warning: card &IONS ignored
Warning: card ION_DYNAMICS = 'BFGS', ignored
Warning: card / ignored
Warning: card &CELL ignored
Warning: card CELL_DYNAMICS = 'BFGS', ignored
Warning: card CELL_FACTOR = 2.0, ignored
Warning: card PRESS = 0.0, ignored
Warning: card / ignored

     Current dimensions of program PWSCF are:
     Max number of different atomic species (ntypx) = 10
     Max number of k-points (npk) =  40000
     Max angular momentum in pseudopotentials (lmaxx) =  3
               file Al.pbe-nl-kjpaw_psl.1.0.0.UPF: wavefunction(s)  3S 3P renormalized

     Subspace diagonalization in iterative solution of the eigenvalue problem:
     a serial algorithm will be used


     Parallelization info
     --------------------
     sticks:   dense  smooth     PW     G-vecs:    dense   smooth      PW
     Min         928     928    258                42646    42646    6208
     Max         929     929    259                42649    42649    6211
     Sum        3713    3713   1033               170589   170589   24837



     bravais-lattice index     =            0
     lattice parameter (alat)  =      15.2815  a.u.
     unit-cell volume          =    3568.6199 (a.u.)^3
     number of atoms/cell      =           32
     number of atomic types    =            1
     number of electrons       =        96.00
     number of Kohn-Sham states=           58
     kinetic-energy cutoff     =      50.0000  Ry
     charge density cutoff     =     200.0000  Ry
     convergence threshold     =      1.0E-06
     mixing beta               =       0.1000
     number of iterations used =           10  TF        mixing
     Exchange-correlation      = SLA PW PBX PBC ( 1  4  3  4 0 0)

     celldm(1)=  15.281527  celldm(2)=   0.000000  celldm(3)=   0.000000
     celldm(4)=   0.000000  celldm(5)=   0.000000  celldm(6)=   0.000000

     crystal axes: (cart. coord. in units of alat)
               a(1) = (   1.000000   0.000000   0.000000 )  
               a(2) = (   0.000000   1.000000   0.000000 )  
               a(3) = (   0.000000   0.000000   1.000000 )  

     reciprocal axes: (cart. coord. in units 2 pi/alat)
               b(1) = (  1.000000  0.000000  0.000000 )  
               b(2) = (  0.000000  1.000000  0.000000 )  
               b(3) = (  0.000000  0.000000  1.000000 )  


     PseudoPot. # 1 for Al read from file:
     /opt/pp/Al.pbe-nl-kjpaw_psl.1.0.0.UPF
     MD5 check sum: 1b67f78b73fe58c7924490f171ce8a1e
     Pseudo is Projector augmented-wave + core cor, Zval =  3.0
     Generated using "atomic" code by A. Dal Corso v.6.3
     Shape of augmentation charge: PSQ
     Using radial grid of 1135 points,  4 beta functions with: 
                l(1) =   0
                l(2) =   0
                l(3) =   1
                l(4) =   1
     Q(r) pseudized with 0 coefficients 


     atomic species   valence    mass     pseudopotential
        Al             3.00    26.98200     Al( 1.00)

     No symmetry found



   Cartesian axes

     site n.     atom                  positions (alat units)
         1           Al  tau(   1) = (  -0.0028788  -0.0025415  -0.0020736  )
         2           Al  tau(   2) = (   0.2480188   0.2458636  -0.0020554  )
         3           Al  tau(   3) = (   0.2466400  -0.0023738   0.2497448  )
         4           Al  tau(   4) = (  -0.0027775   0.2491309   0.2488510  )
         5           Al  tau(   5) = (  -0.0005725  -0.0006019   0.4964310  )
         6           Al  tau(   6) = (   0.2483372   0.2460440   0.4974111  )
         7           Al  tau(   7) = (   0.2476046  -0.0013873   0.7464873  )
         8           Al  tau(   8) = (  -0.0021785   0.2482909   0.7490622  )
         9           Al  tau(   9) = (  -0.0007191   0.4982442  -0.0027410  )
        10           Al  tau(  10) = (   0.2484985   0.7487912   0.0006232  )
        11           Al  tau(  11) = (   0.2488942   0.4982527   0.2493895  )
        12           Al  tau(  12) = (  -0.0023111   0.7477466   0.2475850  )
        13           Al  tau(  13) = (  -0.0017369   0.4986309   0.4981740  )
        14           Al  tau(  14) = (   0.2470949   0.7478881   0.4963483  )
        15           Al  tau(  15) = (   0.2500732   0.4956985   0.7449523  )
        16           Al  tau(  16) = (  -0.0052398   0.7450282   0.7473277  )
        17           Al  tau(  17) = (   0.4990108  -0.0034202  -0.0029272  )
        18           Al  tau(  18) = (   0.7466817   0.2481345  -0.0044815  )
        19           Al  tau(  19) = (   0.7444675  -0.0033842   0.2479990  )
        20           Al  tau(  20) = (   0.4971838   0.2470736   0.2460371  )
        21           Al  tau(  21) = (   0.4967519  -0.0002757   0.4971633  )
        22           Al  tau(  22) = (   0.7479290   0.2449508   0.4970009  )
        23           Al  tau(  23) = (   0.7476682  -0.0031664   0.7475876  )
        24           Al  tau(  24) = (   0.4974735   0.2464743   0.7473412  )
        25           Al  tau(  25) = (   0.4962039   0.4983066  -0.0043703  )
        26           Al  tau(  26) = (   0.7455623   0.7481645  -0.0004300  )
        27           Al  tau(  27) = (   0.7481875   0.4957978   0.2469522  )
        28           Al  tau(  28) = (   0.4980841   0.7457100   0.2490554  )
        29           Al  tau(  29) = (   0.4947931   0.4982034   0.4977055  )
        30           Al  tau(  30) = (   0.7487077   0.7472804   0.4962205  )
        31           Al  tau(  31) = (   0.7469600   0.4974581   0.7484965  )
        32           Al  tau(  32) = (   0.4974960   0.7469718   0.7467246  )

     number of k points=    14  Marzari-Vanderbilt smearing, width (Ry)=  0.0200
                       cart. coord. in units 2pi/alat
        k(    1) = (   0.1666667   0.1666667   0.1666667), wk =   0.1481481
        k(    2) = (   0.1666667   0.1666667  -0.5000000), wk =   0.1481481
        k(    3) = (   0.1666667  -0.5000000  -0.5000000), wk =   0.1481481
        k(    4) = (  -0.5000000  -0.5000000  -0.5000000), wk =   0.0740741
        k(    5) = (  -0.1666667  -0.1666667   0.1666667), wk =   0.1481481
        k(    6) = (  -0.1666667   0.1666667  -0.1666667), wk =   0.1481481
        k(    7) = (   0.1666667  -0.1666667  -0.1666667), wk =   0.1481481
        k(    8) = (  -0.1666667   0.1666667   0.5000000), wk =   0.1481481
        k(    9) = (  -0.5000000  -0.1666667   0.1666667), wk =   0.1481481
        k(   10) = (   0.5000000  -0.1666667  -0.1666667), wk =   0.1481481
        k(   11) = (  -0.1666667  -0.5000000   0.1666667), wk =   0.1481481
        k(   12) = (  -0.1666667   0.5000000  -0.1666667), wk =   0.1481481
        k(   13) = (  -0.5000000   0.1666667   0.5000000), wk =   0.1481481
        k(   14) = (  -0.5000000   0.5000000   0.1666667), wk =   0.1481481

     Dense  grid:   170589 G-vectors     FFT dimensions: (  72,  72,  72)

     Estimated max dynamical RAM per process >     208.55 MB

     Estimated total dynamical RAM >     834.19 MB

     Initial potential from superposition of free atoms

     starting charge   95.92671, renormalised to   96.00000
     Starting wfcs are  128 randomized atomic wfcs
     Checking if some PAW data can be deallocated... 

     total cpu time spent up to now is       27.5 secs

     Self-consistent Calculation

     iteration #  1     ecut=    50.00 Ry     beta= 0.10
     Davidson diagonalization with overlap
     ethr =  1.00E-02,  avg # of iterations =  3.0

     Threshold (ethr) on eigenvalues was too large:
     Diagonalizing with lowered threshold

     Davidson diagonalization with overlap
     ethr =  1.95E-04,  avg # of iterations =  3.6

     total cpu time spent up to now is      108.0 secs

     total energy              =   -1264.10799894 Ry
     Harris-Foulkes estimate   =   -1264.11423110 Ry
     estimated scf accuracy    <       0.18278333 Ry

     iteration #  2     ecut=    50.00 Ry     beta= 0.10
     Davidson diagonalization with overlap
     ethr =  1.90E-04,  avg # of iterations =  1.0

     total cpu time spent up to now is      133.7 secs

     total energy              =   -1264.06030447 Ry
     Harris-Foulkes estimate   =   -1264.10881069 Ry
     estimated scf accuracy    <       0.15875868 Ry

     iteration #  3     ecut=    50.00 Ry     beta= 0.10
     Davidson diagonalization with overlap
     ethr =  1.65E-04,  avg # of iterations =  1.0

     total cpu time spent up to now is      159.4 secs

     total energy              =   -1264.06361483 Ry
     Harris-Foulkes estimate   =   -1264.06370707 Ry
     estimated scf accuracy    <       0.00064388 Ry

     iteration #  4     ecut=    50.00 Ry     beta= 0.10
     Davidson diagonalization with overlap
     ethr =  6.71E-07,  avg # of iterations =  5.2

     total cpu time spent up to now is      221.7 secs

     total energy              =   -1264.06452493 Ry
     Harris-Foulkes estimate   =   -1264.06454783 Ry
     estimated scf accuracy    <       0.00060293 Ry

     iteration #  5     ecut=    50.00 Ry     beta= 0.10
     Davidson diagonalization with overlap
     ethr =  6.28E-07,  avg # of iterations =  1.0

     total cpu time spent up to now is      247.8 secs

     total energy              =   -1264.06406492 Ry
     Harris-Foulkes estimate   =   -1264.06452664 Ry
     estimated scf accuracy    <       0.00058064 Ry

     iteration #  6     ecut=    50.00 Ry     beta= 0.10
     Davidson diagonalization with overlap
     ethr =  6.05E-07,  avg # of iterations =  2.0

     total cpu time spent up to now is      285.3 secs

     total energy              =   -1264.06419382 Ry
     Harris-Foulkes estimate   =   -1264.06417417 Ry
     estimated scf accuracy    <       0.00005669 Ry

     iteration #  7     ecut=    50.00 Ry     beta= 0.10
     Davidson diagonalization with overlap
     ethr =  5.91E-08,  avg # of iterations =  2.1

     total cpu time spent up to now is      311.9 secs

     total energy              =   -1264.06418622 Ry
     Harris-Foulkes estimate   =   -1264.06419694 Ry
     estimated scf accuracy    <       0.00001638 Ry

     iteration #  8     ecut=    50.00 Ry     beta= 0.10
     Davidson diagonalization with overlap
     ethr =  1.71E-08,  avg # of iterations =  4.9

     total cpu time spent up to now is      348.3 secs

     total energy              =   -1264.06419038 Ry
     Harris-Foulkes estimate   =   -1264.06418926 Ry
     estimated scf accuracy    <       0.00000329 Ry

     iteration #  9     ecut=    50.00 Ry     beta= 0.10
     Davidson diagonalization with overlap
     ethr =  3.42E-09,  avg # of iterations =  2.9

     total cpu time spent up to now is      378.7 secs

     total energy              =   -1264.06419027 Ry
     Harris-Foulkes estimate   =   -1264.06419088 Ry
     estimated scf accuracy    <       0.00000233 Ry

     iteration # 10     ecut=    50.00 Ry     beta= 0.10
     Davidson diagonalization with overlap
     ethr =  2.43E-09,  avg # of iterations =  1.9

     total cpu time spent up to now is      405.1 secs

     total energy              =   -1264.06418998 Ry
     Harris-Foulkes estimate   =   -1264.06419044 Ry
     estimated scf accuracy    <       0.00000141 Ry

     iteration # 11     ecut=    50.00 Ry     beta= 0.10
     Davidson diagonalization with overlap
     ethr =  1.47E-09,  avg # of iterations =  2.1

     total cpu time spent up to now is      431.6 secs

     End of self-consistent calculation

          k = 0.1667 0.1667 0.1667 ( 21266 PWs)   bands (ev):

    -3.0519  -1.5732  -1.5537  -1.5295  -0.0979  -0.0909  -0.0748  -0.0638
    -0.0541  -0.0257   1.3669   1.3781   1.3945   1.4055   1.4118   1.4187
     1.4348   2.8219   2.8405   2.8497   2.8587   2.8671   2.8852   4.2107
     4.2161   4.2219   4.3075   4.3140   4.3197   5.6004   5.6028   5.6268
     5.6325   5.6436   5.6533   5.7394   7.0144   7.0183   7.0255   7.0417
     7.0472   7.0512   7.0604   7.0670   7.0876   7.3781   7.3834   7.3903
     8.4350   8.4390   8.4524   8.4631   8.4734   8.4777   8.7752   8.7791
     8.7899   8.8015

          k = 0.1667 0.1667-0.5000 ( 21312 PWs)   bands (ev):

    -2.5601  -2.5405  -1.0694  -1.0635  -1.0510  -1.0384   0.3927   0.4090
     0.4218   0.4298   0.4416   0.4461   1.8704   1.8750   1.8814   1.8857
     1.8990   1.9031   3.3127   3.3212   3.3259   3.3296   3.3405   3.3511
     4.6756   4.6791   4.6946   4.6999   4.7426   4.7543   4.7564   4.7659
     4.7862   4.7944   6.1065   6.1120   6.1232   6.1389   6.1971   6.2017
     6.2069   6.2151   7.5054   7.5104   7.5241   7.5371   7.6142   7.6247
     7.8217   7.8274   7.8404   7.8483   8.9470   8.9488   8.9581   8.9646
     9.3008   9.3056

          k = 0.1667-0.5000-0.5000 ( 21296 PWs)   bands (ev):

    -2.0693  -2.0607  -2.0414  -2.0300  -0.5797  -0.5706  -0.5517  -0.5400
     0.8939   0.9031   0.9219   0.9336   2.3340   2.3450   2.3507   2.3582
     2.3658   2.3834   2.3906   2.3965   3.7717   3.7834   3.7896   3.7972
     3.8035   3.8221   3.8294   3.8347   5.1357   5.1455   5.1650   5.1779
     5.2287   5.2393   5.2451   5.2527   5.2616   5.2781   5.2862   5.2913
     6.6391   6.6438   6.6537   6.6597   8.0679   8.0730   8.0820   8.0884
     8.3697   8.3782   8.3942   8.4052   9.3301   9.3440   9.3525   9.3613
     9.3698   9.3932

          k =-0.5000-0.5000-0.5000 ( 21368 PWs)   bands (ev):

    -1.5903  -1.5836  -1.5633  -1.5579  -1.5478  -1.5339  -1.5294  -1.5087
     2.7867   2.7888   2.7995   2.8043   2.8145   2.8222   2.8236   2.8313
     2.8338   2.8388   2.8415   2.8455   2.8487   2.8521   2.8566   2.8583
     2.8644   2.8718   2.8773   2.8785   2.8856   2.8983   2.9092   2.9261
     7.0763   7.0842   7.0903   7.0948   7.1038   7.1087   7.1122   7.1144
     7.1151   7.1211   7.1307   7.1347   7.1404   7.1422   7.1440   7.1496
     7.1528   7.1593   7.1622   7.1637   7.1720   7.1769   7.1906   7.1920
    11.3044  11.3129

          k =-0.1667-0.1667 0.1667 ( 21266 PWs)   bands (ev):

    -3.0519  -1.5689  -1.5539  -1.5338  -0.0964  -0.0847  -0.0752  -0.0627
    -0.0468  -0.0415   1.3635   1.3889   1.3933   1.4000   1.4102   1.4189
     1.4357   2.8297   2.8410   2.8473   2.8562   2.8651   2.8836   4.2133
     4.2170   4.2202   4.3095   4.3132   4.3166   5.5926   5.6172   5.6213
     5.6300   5.6433   5.6551   5.7391   7.0174   7.0245   7.0324   7.0368
     7.0444   7.0489   7.0580   7.0683   7.0828   7.3801   7.3840   7.3878
     8.4372   8.4461   8.4544   8.4604   8.4657   8.4774   8.7740   8.7850
     8.7949   8.8071

          k =-0.1667 0.1667-0.1667 ( 21266 PWs)   bands (ev):

    -3.0519  -1.5729  -1.5523  -1.5313  -0.0994  -0.0876  -0.0717  -0.0607
    -0.0505  -0.0374   1.3713   1.3781   1.3901   1.3993   1.4123   1.4236
     1.4357   2.8308   2.8385   2.8447   2.8592   2.8683   2.8816   4.2105
     4.2165   4.2226   4.3067   4.3136   4.3202   5.6017   5.6061   5.6164
     5.6267   5.6471   5.6606   5.7397   7.0188   7.0227   7.0282   7.0331
     7.0473   7.0540   7.0614   7.0663   7.0821   7.3770   7.3840   7.3903
     8.4363   8.4426   8.4482   8.4659   8.4704   8.4781   8.7744   8.7813
     8.7901   8.8056

          k = 0.1667-0.1667-0.1667 ( 21266 PWs)   bands (ev):

    -3.0519  -1.5703  -1.5573  -1.5288  -0.0999  -0.0850  -0.0736  -0.0701
    -0.0585  -0.0198   1.3721   1.3769   1.3855   1.4019   1.4091   1.4170
     1.4478   2.8236   2.8388   2.8441   2.8569   2.8663   2.8932   4.2097
     4.2168   4.2233   4.3060   4.3134   4.3207   5.5992   5.6081   5.6189
     5.6302   5.6416   5.6616   5.7394   7.0111   7.0185   7.0276   7.0329
     7.0424   7.0539   7.0656   7.0725   7.0879   7.3771   7.3841   7.3919
     8.4311   8.4454   8.4501   8.4649   8.4684   8.4793   8.7765   8.7815
     8.7872   8.8077

          k =-0.1667 0.1667 0.5000 ( 21312 PWs)   bands (ev):

    -2.5601  -2.5405  -1.0742  -1.0582  -1.0547  -1.0351   0.3951   0.4050
     0.4183   0.4299   0.4404   0.4523   1.8626   1.8766   1.8826   1.8873
     1.8977   1.9078   3.3131   3.3184   3.3261   3.3334   3.3426   3.3474
     4.6716   4.6833   4.6926   4.7027   4.7427   4.7504   4.7529   4.7627
     4.7900   4.8000   6.1010   6.1183   6.1208   6.1418   6.1933   6.2029
     6.2072   6.2159   7.5038   7.5129   7.5242   7.5359   7.6138   7.6244
     7.8182   7.8312   7.8381   7.8512   8.9441   8.9518   8.9583   8.9647
     9.3011   9.3076

          k =-0.5000-0.1667 0.1667 ( 21312 PWs)   bands (ev):

    -2.5611  -2.5394  -1.0794  -1.0567  -1.0506  -1.0359   0.3977   0.4097
     0.4185   0.4297   0.4376   0.4479   1.8661   1.8740   1.8795   1.8881
     1.9007   1.9064   3.3115   3.3188   3.3277   3.3346   3.3398   3.3478
     4.6760   4.6774   4.6936   4.7045   4.7414   4.7505   4.7599   4.7691
     4.7821   4.7951   6.0959   6.1189   6.1264   6.1417   6.1951   6.2016
     6.2038   6.2180   7.5002   7.5140   7.5278   7.5355   7.6139   7.6247
     7.8215   7.8251   7.8383   7.8523   8.9430   8.9524   8.9544   8.9698
     9.2959   9.3086

          k = 0.5000-0.1667-0.1667 ( 21312 PWs)   bands (ev):

    -2.5611  -2.5394  -1.0820  -1.0567  -1.0507  -1.0328   0.3865   0.4080
     0.4164   0.4308   0.4366   0.4629   1.8682   1.8704   1.8788   1.8880
     1.9025   1.9064   3.3070   3.3148   3.3245   3.3347   3.3439   3.3561
     4.6715   4.6800   4.6930   4.7028   4.7345   4.7446   4.7605   4.7702
     4.7897   4.8032   6.0925   6.1190   6.1254   6.1431   6.1933   6.2028
     6.2082   6.2160   7.5015   7.5119   7.5205   7.5410   7.6141   7.6244
     7.8173   7.8304   7.8408   7.8516   8.9443   8.9514   8.9592   8.9652
     9.2980   9.3075

          k =-0.1667-0.5000 0.1667 ( 21312 PWs)   bands (ev):

    -2.5532  -2.5474  -1.0724  -1.0691  -1.0472  -1.0338   0.3994   0.4052
     0.4194   0.4219   0.4390   0.4573   1.8690   1.8764   1.8845   1.8875
     1.8939   1.9019   3.3102   3.3142   3.3289   3.3355   3.3423   3.3494
     4.6839   4.6856   4.6895   4.6916   4.7394   4.7429   4.7621   4.7640
     4.7931   4.7988   6.1030   6.1065   6.1292   6.1433   6.2019   6.2031
     6.2057   6.2079   7.5053   7.5164   7.5252   7.5289   7.6173   7.6209
     7.8306   7.8318   7.8374   7.8393   8.9523   8.9530   8.9567   8.9577
     9.2996   9.3168

          k =-0.1667 0.5000-0.1667 ( 21312 PWs)   bands (ev):

    -2.5532  -2.5474  -1.0749  -1.0703  -1.0428  -1.0344   0.4000   0.4077
     0.4204   0.4257   0.4372   0.4507   1.8672   1.8717   1.8848   1.8938
     1.8964   1.9002   3.3075   3.3121   3.3277   3.3340   3.3479   3.3513
     4.6820   4.6851   4.6861   4.6961   4.7374   4.7409   4.7701   4.7728
     4.7868   4.7926   6.1007   6.1061   6.1326   6.1420   6.2000   6.2025
     6.2041   6.2133   7.5082   7.5130   7.5239   7.5323   7.6172   7.6206
     7.8308   7.8313   7.8323   7.8433   8.9498   8.9512   8.9554   8.9627
     9.3042   9.3101

          k =-0.5000 0.1667 0.5000 ( 21296 PWs)   bands (ev):

    -2.0799  -2.0583  -2.0399  -2.0226  -0.5907  -0.5687  -0.5505  -0.5328
     0.8836   0.9047   0.9235   0.9408   2.3315   2.3368   2.3482   2.3667
     2.3745   2.3774   2.3875   2.4032   3.7694   3.7742   3.7861   3.8049
     3.8134   3.8150   3.8257   3.8412   5.1245   5.1470   5.1673   5.1852
     5.2254   5.2318   5.2422   5.2612   5.2687   5.2735   5.2824   5.2987
     6.6344   6.6443   6.6549   6.6631   8.0621   8.0735   8.0825   8.0920
     8.3602   8.3804   8.3948   8.4118   9.3299   9.3362   9.3484   9.3705
     9.3810   9.3825

          k =-0.5000 0.5000 0.1667 ( 21296 PWs)   bands (ev):

    -2.0679  -2.0579  -2.0392  -2.0366  -0.5779  -0.5680  -0.5487  -0.5470
     0.8953   0.9051   0.9246   0.9269   2.3356   2.3459   2.3505   2.3625
     2.3684   2.3814   2.3882   2.3927   3.7734   3.7843   3.7884   3.8009
     3.8062   3.8190   3.8275   3.8311   5.1372   5.1482   5.1678   5.1697
     5.2309   5.2399   5.2460   5.2569   5.2635   5.2766   5.2820   5.2880
     6.6406   6.6458   6.6551   6.6564   8.0680   8.0735   8.0837   8.0850
     8.3708   8.3799   8.3977   8.3994   9.3330   9.3455   9.3506   9.3646
     9.3710   9.3897

     the Fermi energy is     7.7944 ev

!    total energy              =   -1264.06418991 Ry
     Harris-Foulkes estimate   =   -1264.06419009 Ry
     estimated scf accuracy    <       0.00000018 Ry

     total all-electron energy =    -15540.633167 Ry

     The total energy is the sum of the following terms:

     one-electron contribution =     101.08545793 Ry
     hartree contribution      =       0.21025658 Ry
     xc contribution           =     -82.88548019 Ry
     ewald contribution        =    -172.80191613 Ry
     one-center paw contrib.   =   -1109.67529365 Ry
     smearing contrib. (-TS)   =       0.00278554 Ry

     convergence has been achieved in  11 iterations

     Forces acting on atoms (cartesian axes, Ry/au):

     atom    1 type  1   force =    -0.00003500   -0.00000670    0.00017111
     atom    2 type  1   force =    -0.00074600    0.00165675    0.00063017
     atom    3 type  1   force =     0.00180693   -0.00014683   -0.00416214
     atom    4 type  1   force =    -0.00023635   -0.00130414   -0.00268433
     atom    5 type  1   force =    -0.00351388   -0.00308573    0.00253475
     atom    6 type  1   force =    -0.00110793    0.00348659   -0.00004831
     atom    7 type  1   force =    -0.00108737   -0.00417654    0.00262011
     atom    8 type  1   force =     0.00027592   -0.00060535   -0.00204854
     atom    9 type  1   force =     0.00005341   -0.00061806    0.00101101
     atom   10 type  1   force =    -0.00126941   -0.00059656   -0.00504818
     atom   11 type  1   force =    -0.00194139   -0.00207329   -0.00315675
     atom   12 type  1   force =    -0.00067973    0.00030715   -0.00053929
     atom   13 type  1   force =    -0.00139092   -0.00267787   -0.00029576
     atom   14 type  1   force =    -0.00016993    0.00123814    0.00333015
     atom   15 type  1   force =    -0.00418594    0.00236172    0.00399026
     atom   16 type  1   force =     0.00479430    0.00397051    0.00103865
     atom   17 type  1   force =    -0.00345606    0.00034783    0.00071989
     atom   18 type  1   force =     0.00152914   -0.00043600    0.00342325
     atom   19 type  1   force =     0.00402790    0.00180981   -0.00066729
     atom   20 type  1   force =     0.00059672    0.00161286    0.00052054
     atom   21 type  1   force =     0.00154064   -0.00434520    0.00086538
     atom   22 type  1   force =    -0.00104889    0.00453919    0.00100740
     atom   23 type  1   force =     0.00091218   -0.00076566   -0.00165686
     atom   24 type  1   force =     0.00099000    0.00105690   -0.00070082
     atom   25 type  1   force =     0.00075484   -0.00139351    0.00268293
     atom   26 type  1   force =     0.00244181   -0.00178816   -0.00197013
     atom   27 type  1   force =    -0.00132236    0.00018444    0.00087164
     atom   28 type  1   force =    -0.00075172    0.00193060   -0.00056311
     atom   29 type  1   force =     0.00661759   -0.00272242   -0.00085643
     atom   30 type  1   force =    -0.00206861    0.00035027    0.00194165
     atom   31 type  1   force =    -0.00071083   -0.00044793   -0.00274840
     atom   32 type  1   force =    -0.00061904    0.00233717   -0.00021255

     Total force =     0.021429     Total SCF correction =     0.000551


     Computing stress (Cartesian axis) and pressure

          total   stress  (Ry/bohr**3)                   (kbar)     P=   -2.28
  -0.00001541  -0.00000009  -0.00000008         -2.27     -0.01     -0.01
  -0.00000009  -0.00001543   0.00000010         -0.01     -2.27      0.01
  -0.00000008   0.00000010  -0.00001562         -0.01      0.01     -2.30


     Writing output data file gMuCueIhyhQXarqj.save/

     init_run     :     26.89s CPU     27.10s WALL (       1 calls)
     electrons    :    398.46s CPU    404.18s WALL (       1 calls)
     forces       :     11.89s CPU     11.95s WALL (       1 calls)
     stress       :     14.73s CPU     14.75s WALL (       1 calls)

     Called by init_run:
     wfcinit      :     26.27s CPU     26.45s WALL (       1 calls)
     potinit      :      0.31s CPU      0.31s WALL (       1 calls)
     hinit0       :      0.14s CPU      0.14s WALL (       1 calls)

     Called by electrons:
     c_bands      :    352.04s CPU    357.09s WALL (      12 calls)
     sum_band     :     41.41s CPU     42.02s WALL (      12 calls)
     v_of_rho     :      0.56s CPU      0.59s WALL (      12 calls)
     newd         :      1.71s CPU      1.74s WALL (      12 calls)
     PAW_pot      :      3.00s CPU      3.00s WALL (      12 calls)
     mix_rho      :      0.14s CPU      0.14s WALL (      12 calls)

     Called by c_bands:
     init_us_2    :      2.46s CPU      2.52s WALL (     378 calls)
     cegterg      :    347.68s CPU    352.39s WALL (     168 calls)

     Called by sum_band:
     sum_band:bec :      0.04s CPU      0.04s WALL (     168 calls)
     addusdens    :      1.58s CPU      1.76s WALL (      12 calls)

     Called by *egterg:
     h_psi        :    204.90s CPU    207.94s WALL (     611 calls)
     s_psi        :     81.51s CPU     81.91s WALL (     611 calls)
     g_psi        :      0.28s CPU      0.29s WALL (     429 calls)
     cdiaghg      :      4.75s CPU      4.76s WALL (     583 calls)

     Called by h_psi:
     h_psi:pot    :    204.40s CPU    207.01s WALL (     611 calls)
     h_psi:calbec :     84.54s CPU     84.73s WALL (     611 calls)
     vloc_psi     :     37.27s CPU     39.64s WALL (     611 calls)
     add_vuspsi   :     82.58s CPU     82.64s WALL (     611 calls)

     General routines
     calbec       :    129.34s CPU    129.59s WALL (     849 calls)
     fft          :      0.32s CPU      0.34s WALL (     158 calls)
     ffts         :      0.02s CPU      0.02s WALL (      12 calls)
     fftw         :     40.53s CPU     43.01s WALL (   62562 calls)

     Parallel routines
     fft_scatt_xy :      5.12s CPU      5.46s WALL (   62732 calls)
     fft_scatt_yz :     11.96s CPU     12.75s WALL (   62732 calls)

     PWSCF        :   7m32.43s CPU   7m38.65s WALL


   This run was terminated on:   2: 8:39  19Jul2021            

=------------------------------------------------------------------------------=
   JOB DONE.
=------------------------------------------------------------------------------=
