
     Program PWSCF v.6.4.1 starts on 17Jul2021 at  1:31:14 

     This program is part of the open-source Quantum ESPRESSO suite
     for quantum simulation of materials; please cite
         "P. Giannozzi et al., J. Phys.:Condens. Matter 21 395502 (2009);
         "P. Giannozzi et al., J. Phys.:Condens. Matter 29 465901 (2017);
          URL http://www.quantum-espresso.org", 
     in publications or presentations arising from this work. More details at
     http://www.quantum-espresso.org/quote

     Parallel version (MPI), running on     4 processors

     MPI processes distributed on     1 nodes
     R & G space division:  proc/nbgrp/npool/nimage =       4
     Reading input from /cloud/Code/python/qeforfit/examples/al/01/wd/configs/7/config_0005.in
Warning: card &IONS ignored
Warning: card ION_DYNAMICS = 'BFGS', ignored
Warning: card / ignored
Warning: card &CELL ignored
Warning: card CELL_DYNAMICS = 'BFGS', ignored
Warning: card CELL_FACTOR = 2.0, ignored
Warning: card PRESS = 0.0, ignored
Warning: card / ignored

     Current dimensions of program PWSCF are:
     Max number of different atomic species (ntypx) = 10
     Max number of k-points (npk) =  40000
     Max angular momentum in pseudopotentials (lmaxx) =  3
               file Al.pbe-nl-kjpaw_psl.1.0.0.UPF: wavefunction(s)  3S 3P renormalized

     Subspace diagonalization in iterative solution of the eigenvalue problem:
     a serial algorithm will be used


     Parallelization info
     --------------------
     sticks:   dense  smooth     PW     G-vecs:    dense   smooth      PW
     Min         929     929    258                42677    42677    6208
     Max         931     931    259                42678    42678    6211
     Sum        3721    3721   1033               170709   170709   24837



     bravais-lattice index     =            0
     lattice parameter (alat)  =      15.2891  a.u.
     unit-cell volume          =    3573.8999 (a.u.)^3
     number of atoms/cell      =           32
     number of atomic types    =            1
     number of electrons       =        96.00
     number of Kohn-Sham states=           58
     kinetic-energy cutoff     =      50.0000  Ry
     charge density cutoff     =     200.0000  Ry
     convergence threshold     =      1.0E-06
     mixing beta               =       0.1000
     number of iterations used =           10  TF        mixing
     Exchange-correlation      = SLA PW PBX PBC ( 1  4  3  4 0 0)

     celldm(1)=  15.289060  celldm(2)=   0.000000  celldm(3)=   0.000000
     celldm(4)=   0.000000  celldm(5)=   0.000000  celldm(6)=   0.000000

     crystal axes: (cart. coord. in units of alat)
               a(1) = (   1.000000   0.000000   0.000000 )  
               a(2) = (   0.000000   1.000000   0.000000 )  
               a(3) = (   0.000000   0.000000   1.000000 )  

     reciprocal axes: (cart. coord. in units 2 pi/alat)
               b(1) = (  1.000000  0.000000  0.000000 )  
               b(2) = (  0.000000  1.000000  0.000000 )  
               b(3) = (  0.000000  0.000000  1.000000 )  


     PseudoPot. # 1 for Al read from file:
     /opt/pp/Al.pbe-nl-kjpaw_psl.1.0.0.UPF
     MD5 check sum: 1b67f78b73fe58c7924490f171ce8a1e
     Pseudo is Projector augmented-wave + core cor, Zval =  3.0
     Generated using "atomic" code by A. Dal Corso v.6.3
     Shape of augmentation charge: PSQ
     Using radial grid of 1135 points,  4 beta functions with: 
                l(1) =   0
                l(2) =   0
                l(3) =   1
                l(4) =   1
     Q(r) pseudized with 0 coefficients 


     atomic species   valence    mass     pseudopotential
        Al             3.00    26.98200     Al( 1.00)

     No symmetry found



   Cartesian axes

     site n.     atom                  positions (alat units)
         1           Al  tau(   1) = (  -0.0010790  -0.0009526  -0.0007772  )
         2           Al  tau(   2) = (   0.2492574   0.2484496  -0.0007704  )
         3           Al  tau(   3) = (   0.2487406  -0.0008897   0.2499043  )
         4           Al  tau(   4) = (  -0.0010410   0.2496743   0.2495693  )
         5           Al  tau(   5) = (  -0.0002146  -0.0002256   0.4986623  )
         6           Al  tau(   6) = (   0.2493768   0.2485172   0.4990297  )
         7           Al  tau(   7) = (   0.2491022  -0.0005200   0.7486834  )
         8           Al  tau(   8) = (  -0.0008165   0.2493594   0.7496485  )
         9           Al  tau(   9) = (  -0.0002695   0.4993419  -0.0010274  )
        10           Al  tau(  10) = (   0.2494372   0.7495469   0.0002336  )
        11           Al  tau(  11) = (   0.2495855   0.4993451   0.2497712  )
        12           Al  tau(  12) = (  -0.0008662   0.7491554   0.2490948  )
        13           Al  tau(  13) = (  -0.0006510   0.4994869   0.4993156  )
        14           Al  tau(  14) = (   0.2489111   0.7492084   0.4986313  )
        15           Al  tau(  15) = (   0.2500274   0.4983877   0.7481080  )
        16           Al  tau(  16) = (  -0.0019639   0.7481365   0.7489984  )
        17           Al  tau(  17) = (   0.4996292  -0.0012820  -0.0010971  )
        18           Al  tau(  18) = (   0.7487562   0.2493008  -0.0016797  )
        19           Al  tau(  19) = (   0.7479264  -0.0012684   0.2492500  )
        20           Al  tau(  20) = (   0.4989444   0.2489031   0.2485146  )
        21           Al  tau(  21) = (   0.4987826  -0.0001034   0.4989367  )
        22           Al  tau(  22) = (   0.7492238   0.2481075   0.4988759  )
        23           Al  tau(  23) = (   0.7491260  -0.0011868   0.7490958  )
        24           Al  tau(  24) = (   0.4990530   0.2486785   0.7490034  )
        25           Al  tau(  25) = (   0.4985772   0.4993653  -0.0016380  )
        26           Al  tau(  26) = (   0.7483367   0.7493120  -0.0001612  )
        27           Al  tau(  27) = (   0.7493206   0.4984250   0.2488576  )
        28           Al  tau(  28) = (   0.4992819   0.7483921   0.2496459  )
        29           Al  tau(  29) = (   0.4980484   0.4993266   0.4991400  )
        30           Al  tau(  30) = (   0.7495156   0.7489806   0.4985834  )
        31           Al  tau(  31) = (   0.7488605   0.4990473   0.7494365  )
        32           Al  tau(  32) = (   0.4990614   0.7488650   0.7487723  )

     number of k points=    14  Marzari-Vanderbilt smearing, width (Ry)=  0.0200
                       cart. coord. in units 2pi/alat
        k(    1) = (   0.1666667   0.1666667   0.1666667), wk =   0.1481481
        k(    2) = (   0.1666667   0.1666667  -0.5000000), wk =   0.1481481
        k(    3) = (   0.1666667  -0.5000000  -0.5000000), wk =   0.1481481
        k(    4) = (  -0.5000000  -0.5000000  -0.5000000), wk =   0.0740741
        k(    5) = (  -0.1666667  -0.1666667   0.1666667), wk =   0.1481481
        k(    6) = (  -0.1666667   0.1666667  -0.1666667), wk =   0.1481481
        k(    7) = (   0.1666667  -0.1666667  -0.1666667), wk =   0.1481481
        k(    8) = (  -0.1666667   0.1666667   0.5000000), wk =   0.1481481
        k(    9) = (  -0.5000000  -0.1666667   0.1666667), wk =   0.1481481
        k(   10) = (   0.5000000  -0.1666667  -0.1666667), wk =   0.1481481
        k(   11) = (  -0.1666667  -0.5000000   0.1666667), wk =   0.1481481
        k(   12) = (  -0.1666667   0.5000000  -0.1666667), wk =   0.1481481
        k(   13) = (  -0.5000000   0.1666667   0.5000000), wk =   0.1481481
        k(   14) = (  -0.5000000   0.5000000   0.1666667), wk =   0.1481481

     Dense  grid:   170709 G-vectors     FFT dimensions: (  72,  72,  72)

     Estimated max dynamical RAM per process >     208.76 MB

     Estimated total dynamical RAM >     835.04 MB

     Initial potential from superposition of free atoms

     starting charge   95.92671, renormalised to   96.00000
     Starting wfcs are  128 randomized atomic wfcs
     Checking if some PAW data can be deallocated... 

     total cpu time spent up to now is       28.3 secs

     Self-consistent Calculation

     iteration #  1     ecut=    50.00 Ry     beta= 0.10
     Davidson diagonalization with overlap
     ethr =  1.00E-02,  avg # of iterations =  3.0

     Threshold (ethr) on eigenvalues was too large:
     Diagonalizing with lowered threshold

     Davidson diagonalization with overlap
     ethr =  1.93E-04,  avg # of iterations =  3.6

     total cpu time spent up to now is      111.1 secs

     total energy              =   -1264.10916721 Ry
     Harris-Foulkes estimate   =   -1264.11532428 Ry
     estimated scf accuracy    <       0.18091861 Ry

     iteration #  2     ecut=    50.00 Ry     beta= 0.10
     Davidson diagonalization with overlap
     ethr =  1.88E-04,  avg # of iterations =  1.0

     total cpu time spent up to now is      137.7 secs

     total energy              =   -1264.06218067 Ry
     Harris-Foulkes estimate   =   -1264.10997243 Ry
     estimated scf accuracy    <       0.15715064 Ry

     iteration #  3     ecut=    50.00 Ry     beta= 0.10
     Davidson diagonalization with overlap
     ethr =  1.64E-04,  avg # of iterations =  1.0

     total cpu time spent up to now is      164.2 secs

     total energy              =   -1264.06520586 Ry
     Harris-Foulkes estimate   =   -1264.06529889 Ry
     estimated scf accuracy    <       0.00063613 Ry

     iteration #  4     ecut=    50.00 Ry     beta= 0.10
     Davidson diagonalization with overlap
     c_bands:  2 eigenvalues not converged
     ethr =  6.63E-07,  avg # of iterations =  5.4

     total cpu time spent up to now is      229.3 secs

     total energy              =   -1264.06588289 Ry
     Harris-Foulkes estimate   =   -1264.06599929 Ry
     estimated scf accuracy    <       0.00037081 Ry

     iteration #  5     ecut=    50.00 Ry     beta= 0.10
     Davidson diagonalization with overlap
     ethr =  3.86E-07,  avg # of iterations =  1.1

     total cpu time spent up to now is      257.5 secs

     total energy              =   -1264.06559885 Ry
     Harris-Foulkes estimate   =   -1264.06588717 Ry
     estimated scf accuracy    <       0.00028346 Ry

     iteration #  6     ecut=    50.00 Ry     beta= 0.10
     Davidson diagonalization with overlap
     ethr =  2.95E-07,  avg # of iterations =  2.0

     total cpu time spent up to now is      298.8 secs

     total energy              =   -1264.06568260 Ry
     Harris-Foulkes estimate   =   -1264.06568303 Ry
     estimated scf accuracy    <       0.00002525 Ry

     iteration #  7     ecut=    50.00 Ry     beta= 0.10
     Davidson diagonalization with overlap
     ethr =  2.63E-08,  avg # of iterations =  2.0

     total cpu time spent up to now is      328.5 secs

     total energy              =   -1264.06567554 Ry
     Harris-Foulkes estimate   =   -1264.06568370 Ry
     estimated scf accuracy    <       0.00000903 Ry

     iteration #  8     ecut=    50.00 Ry     beta= 0.10
     Davidson diagonalization with overlap
     ethr =  9.41E-09,  avg # of iterations =  3.1

     total cpu time spent up to now is      369.7 secs

     total energy              =   -1264.06567699 Ry
     Harris-Foulkes estimate   =   -1264.06567767 Ry
     estimated scf accuracy    <       0.00000214 Ry

     iteration #  9     ecut=    50.00 Ry     beta= 0.10
     Davidson diagonalization with overlap
     ethr =  2.23E-09,  avg # of iterations =  1.0

     total cpu time spent up to now is      398.5 secs

     End of self-consistent calculation

          k = 0.1667 0.1667 0.1667 ( 21266 PWs)   bands (ev):

    -3.0562  -1.5658  -1.5584  -1.5493  -0.0864  -0.0840  -0.0778  -0.0738
    -0.0700  -0.0592   1.3796   1.3837   1.3899   1.3940   1.3965   1.3990
     1.4051   2.8318   2.8384   2.8418   2.8449   2.8486   2.8555   4.2035
     4.2056   4.2078   4.2987   4.3011   4.3033   5.6046   5.6055   5.6145
     5.6167   5.6208   5.6246   5.7258   7.0191   7.0200   7.0241   7.0302
     7.0323   7.0341   7.0372   7.0427   7.0519   7.3665   7.3687   7.3711
     8.4336   8.4353   8.4403   8.4444   8.4482   8.4498   8.7726   8.7738
     8.7784   8.7830

          k = 0.1667 0.1667-0.5000 ( 21312 PWs)   bands (ev):

    -2.5588  -2.5512  -1.0672  -1.0649  -1.0601  -1.0552   0.4041   0.4101
     0.4150   0.4180   0.4226   0.4243   1.8687   1.8722   1.8742   1.8764
     1.8821   1.8840   3.3131   3.3160   3.3178   3.3188   3.3236   3.3281
     4.6728   4.6743   4.6803   4.6826   4.7396   4.7437   4.7442   4.7477
     4.7712   4.7746   6.1023   6.1044   6.1093   6.1147   6.1876   6.1892
     6.1914   6.1943   7.5003   7.5021   7.5075   7.5124   7.6026   7.6066
     7.8143   7.8164   7.8216   7.8246   8.9357   8.9365   8.9401   8.9424
     9.2914   9.2937

          k = 0.1667-0.5000-0.5000 ( 21356 PWs)   bands (ev):

    -2.0627  -2.0595  -2.0522  -2.0479  -0.5746  -0.5713  -0.5641  -0.5597
     0.8976   0.9009   0.9082   0.9126   2.3439   2.3482   2.3503   2.3531
     2.3559   2.3624   2.3653   2.3674   3.7809   3.7854   3.7876   3.7905
     3.7929   3.7998   3.8026   3.8047   5.1367   5.1403   5.1479   5.1526
     5.2353   5.2394   5.2414   5.2443   5.2476   5.2537   5.2570   5.2589
     6.6317   6.6335   6.6372   6.6394   8.0592   8.0610   8.0645   8.0669
     8.3639   8.3669   8.3732   8.3772   9.3388   9.3446   9.3473   9.3511
     9.3542   9.3618

          k =-0.5000-0.5000-0.5000 ( 21368 PWs)   bands (ev):

    -1.5724  -1.5699  -1.5620  -1.5601  -1.5564  -1.5508  -1.5494  -1.5414
     2.8147   2.8157   2.8196   2.8214   2.8253   2.8282   2.8287   2.8316
     2.8324   2.8344   2.8354   2.8370   2.8382   2.8394   2.8411   2.8417
     2.8442   2.8469   2.8488   2.8495   2.8521   2.8567   2.8610   2.8673
     7.0985   7.1014   7.1037   7.1054   7.1089   7.1106   7.1120   7.1129
     7.1131   7.1154   7.1189   7.1204   7.1226   7.1232   7.1239   7.1260
     7.1273   7.1296   7.1308   7.1313   7.1344   7.1363   7.1415   7.1421
    11.3034  11.3086

          k =-0.1667-0.1667 0.1667 ( 21266 PWs)   bands (ev):

    -3.0562  -1.5642  -1.5585  -1.5509  -0.0858  -0.0816  -0.0780  -0.0734
    -0.0671  -0.0653   1.3783   1.3879   1.3894   1.3920   1.3959   1.3990
     1.4055   2.8346   2.8386   2.8409   2.8442   2.8478   2.8549   4.2044
     4.2058   4.2070   4.2996   4.3010   4.3023   5.6017   5.6109   5.6125
     5.6156   5.6208   5.6251   5.7258   7.0195   7.0232   7.0259   7.0291
     7.0301   7.0330   7.0377   7.0433   7.0499   7.3674   7.3688   7.3702
     8.4345   8.4379   8.4410   8.4433   8.4453   8.4496   8.7731   8.7756
     8.7789   8.7830

          k =-0.1667 0.1667-0.1667 ( 21266 PWs)   bands (ev):

    -3.0562  -1.5657  -1.5579  -1.5500  -0.0871  -0.0827  -0.0765  -0.0726
    -0.0686  -0.0637   1.3813   1.3836   1.3883   1.3917   1.3968   1.4009
     1.4053   2.8352   2.8377   2.8398   2.8451   2.8490   2.8543   4.2034
     4.2057   4.2080   4.2985   4.3010   4.3035   5.6051   5.6068   5.6106
     5.6144   5.6223   5.6272   5.7258   7.0199   7.0223   7.0246   7.0271
     7.0327   7.0350   7.0377   7.0424   7.0501   7.3662   7.3688   7.3712
     8.4342   8.4366   8.4388   8.4452   8.4470   8.4499   8.7717   8.7753
     8.7797   8.7843

          k = 0.1667-0.1667-0.1667 ( 21266 PWs)   bands (ev):

    -3.0562  -1.5647  -1.5598  -1.5491  -0.0871  -0.0817  -0.0774  -0.0760
    -0.0718  -0.0570   1.3816   1.3833   1.3865   1.3927   1.3955   1.3982
     1.4102   2.8323   2.8376   2.8399   2.8446   2.8481   2.8585   4.2031
     4.2057   4.2082   4.2982   4.3010   4.3038   5.6041   5.6075   5.6116
     5.6158   5.6200   5.6275   5.7258   7.0178   7.0219   7.0238   7.0267
     7.0298   7.0351   7.0405   7.0437   7.0520   7.3661   7.3688   7.3716
     8.4323   8.4376   8.4394   8.4451   8.4464   8.4505   8.7731   8.7742
     8.7772   8.7830

          k =-0.1667 0.1667 0.5000 ( 21312 PWs)   bands (ev):

    -2.5588  -2.5512  -1.0690  -1.0629  -1.0614  -1.0540   0.4050   0.4084
     0.4138   0.4182   0.4221   0.4266   1.8666   1.8714   1.8752   1.8775
     1.8815   1.8855   3.3128   3.3154   3.3177   3.3206   3.3239   3.3269
     4.6715   4.6757   4.6796   4.6834   4.7391   4.7424   4.7441   4.7480
     4.7718   4.7755   6.1003   6.1067   6.1081   6.1159   6.1862   6.1897
     6.1916   6.1948   7.4997   7.5030   7.5076   7.5119   7.6025   7.6065
     7.8129   7.8179   7.8208   7.8256   8.9347   8.9376   8.9400   8.9425
     9.2924   9.2954

          k =-0.5000-0.1667 0.1667 ( 21312 PWs)   bands (ev):

    -2.5592  -2.5509  -1.0709  -1.0624  -1.0598  -1.0544   0.4058   0.4106
     0.4138   0.4179   0.4210   0.4250   1.8678   1.8706   1.8745   1.8772
     1.8823   1.8853   3.3123   3.3154   3.3186   3.3209   3.3233   3.3269
     4.6729   4.6736   4.6798   4.6840   4.7385   4.7422   4.7457   4.7493
     4.7703   4.7748   6.0984   6.1071   6.1100   6.1156   6.1871   6.1893
     6.1902   6.1956   7.4983   7.5034   7.5088   7.5118   7.6024   7.6067
     7.8143   7.8157   7.8208   7.8261   8.9343   8.9377   8.9386   8.9443
     9.2895   9.2956

          k = 0.5000-0.1667-0.1667 ( 21312 PWs)   bands (ev):

    -2.5592  -2.5509  -1.0719  -1.0621  -1.0600  -1.0532   0.4017   0.4100
     0.4129   0.4184   0.4206   0.4306   1.8687   1.8696   1.8733   1.8779
     1.8834   1.8848   3.3105   3.3138   3.3176   3.3214   3.3245   3.3297
     4.6714   4.6749   4.6800   4.6835   4.7361   4.7403   4.7469   4.7502
     4.7716   4.7763   6.0973   6.1074   6.1095   6.1165   6.1862   6.1898
     6.1917   6.1948   7.4989   7.5028   7.5063   7.5140   7.6024   7.6067
     7.8127   7.8174   7.8215   7.8256   8.9346   8.9374   8.9403   8.9426
     9.2903   9.2950

          k =-0.1667-0.5000 0.1667 ( 21312 PWs)   bands (ev):

    -2.5560  -2.5540  -1.0682  -1.0669  -1.0586  -1.0536   0.4065   0.4087
     0.4141   0.4151   0.4217   0.4283   1.8684   1.8710   1.8773   1.8781
     1.8801   1.8826   3.3117   3.3129   3.3200   3.3225   3.3236   3.3266
     4.6764   4.6766   4.6784   4.6788   4.7380   4.7387   4.7479   4.7491
     4.7730   4.7744   6.1011   6.1025   6.1110   6.1162   6.1896   6.1900
     6.1911   6.1916   7.5005   7.5045   7.5078   7.5093   7.6039   7.6052
     7.8179   7.8183   7.8202   7.8207   8.9377   8.9379   8.9394   8.9397
     9.2932   9.2959

          k =-0.1667 0.5000-0.1667 ( 21312 PWs)   bands (ev):

    -2.5560  -2.5540  -1.0692  -1.0674  -1.0569  -1.0538   0.4067   0.4095
     0.4147   0.4168   0.4208   0.4258   1.8679   1.8698   1.8774   1.8797
     1.8806   1.8822   3.3106   3.3121   3.3195   3.3217   3.3261   3.3273
     4.6761   4.6765   4.6769   4.6805   4.7370   4.7380   4.7502   4.7509
     4.7720   4.7732   6.1002   6.1021   6.1126   6.1160   6.1888   6.1899
     6.1902   6.1936   7.5014   7.5032   7.5073   7.5103   7.6039   7.6051
     7.8179   7.8181   7.8184   7.8225   8.9369   8.9374   8.9389   8.9416
     9.2941   9.2966

          k =-0.5000 0.1667 0.5000 ( 21356 PWs)   bands (ev):

    -2.0669  -2.0586  -2.0518  -2.0449  -0.5789  -0.5705  -0.5637  -0.5568
     0.8934   0.9017   0.9086   0.9155   2.3428   2.3448   2.3492   2.3563
     2.3592   2.3603   2.3640   2.3701   3.7799   3.7818   3.7864   3.7935
     3.7966   3.7974   3.8013   3.8072   5.1323   5.1410   5.1485   5.1556
     5.2339   5.2363   5.2403   5.2476   5.2503   5.2522   5.2555   5.2617
     6.6298   6.6337   6.6376   6.6408   8.0570   8.0614   8.0647   8.0683
     8.3601   8.3679   8.3733   8.3799   9.3394   9.3413   9.3470   9.3556
     9.3575   9.3620

          k =-0.5000 0.5000 0.1667 ( 21356 PWs)   bands (ev):

    -2.0622  -2.0586  -2.0512  -2.0504  -0.5740  -0.5704  -0.5629  -0.5623
     0.8981   0.9017   0.9093   0.9100   2.3444   2.3484   2.3502   2.3547
     2.3568   2.3617   2.3643   2.3661   3.7815   3.7857   3.7872   3.7919
     3.7939   3.7987   3.8018   3.8034   5.1373   5.1412   5.1490   5.1497
     5.2359   5.2395   5.2419   5.2458   5.2484   5.2533   5.2553   5.2576
     6.6322   6.6341   6.6377   6.6381   8.0593   8.0613   8.0652   8.0656
     8.3642   8.3675   8.3745   8.3750   9.3397   9.3460   9.3486   9.3526
     9.3542   9.3637

     the Fermi energy is     7.7797 ev

!    total energy              =   -1264.06567629 Ry
     Harris-Foulkes estimate   =   -1264.06567707 Ry
     estimated scf accuracy    <       0.00000084 Ry

     total all-electron energy =    -15540.634653 Ry

     The total energy is the sum of the following terms:

     one-electron contribution =     100.98566433 Ry
     hartree contribution      =       0.20279940 Ry
     xc contribution           =     -82.85838998 Ry
     ewald contribution        =    -172.72820563 Ry
     one-center paw contrib.   =   -1109.67018878 Ry
     smearing contrib. (-TS)   =       0.00264437 Ry

     convergence has been achieved in   9 iterations

     Forces acting on atoms (cartesian axes, Ry/au):

     atom    1 type  1   force =    -0.00000757    0.00000523    0.00006766
     atom    2 type  1   force =    -0.00026599    0.00063250    0.00024502
     atom    3 type  1   force =     0.00067866   -0.00007091   -0.00151141
     atom    4 type  1   force =    -0.00012882   -0.00048491   -0.00099372
     atom    5 type  1   force =    -0.00128196   -0.00115835    0.00093845
     atom    6 type  1   force =    -0.00041156    0.00127772   -0.00000895
     atom    7 type  1   force =    -0.00040917   -0.00158499    0.00095468
     atom    8 type  1   force =     0.00009712   -0.00022192   -0.00077887
     atom    9 type  1   force =     0.00001058   -0.00022937    0.00037112
     atom   10 type  1   force =    -0.00047163   -0.00025445   -0.00194618
     atom   11 type  1   force =    -0.00069915   -0.00075699   -0.00113775
     atom   12 type  1   force =    -0.00024226    0.00010210   -0.00017948
     atom   13 type  1   force =    -0.00052918   -0.00099306   -0.00010535
     atom   14 type  1   force =    -0.00005600    0.00045180    0.00123353
     atom   15 type  1   force =    -0.00150075    0.00092636    0.00147777
     atom   16 type  1   force =     0.00182426    0.00146708    0.00036871
     atom   17 type  1   force =    -0.00129214    0.00009696    0.00028892
     atom   18 type  1   force =     0.00057749   -0.00014156    0.00128249
     atom   19 type  1   force =     0.00151062    0.00069422   -0.00024342
     atom   20 type  1   force =     0.00022145    0.00061556    0.00020688
     atom   21 type  1   force =     0.00056239   -0.00161428    0.00032898
     atom   22 type  1   force =    -0.00042106    0.00173218    0.00037040
     atom   23 type  1   force =     0.00033102   -0.00029947   -0.00064381
     atom   24 type  1   force =     0.00036286    0.00040659   -0.00028335
     atom   25 type  1   force =     0.00029899   -0.00051022    0.00099413
     atom   26 type  1   force =     0.00088429   -0.00066914   -0.00073715
     atom   27 type  1   force =    -0.00049520    0.00004707    0.00034276
     atom   28 type  1   force =    -0.00029750    0.00071458   -0.00019415
     atom   29 type  1   force =     0.00244109   -0.00101896   -0.00030311
     atom   30 type  1   force =    -0.00078003    0.00012807    0.00073499
     atom   31 type  1   force =    -0.00027693   -0.00015184   -0.00104475
     atom   32 type  1   force =    -0.00023393    0.00086240   -0.00009506

     Total force =     0.007990     Total SCF correction =     0.001153
     SCF correction compared to forces is large: reduce conv_thr to get better values


     Computing stress (Cartesian axis) and pressure

          total   stress  (Ry/bohr**3)                   (kbar)     P=   -3.67
  -0.00002491  -0.00000001  -0.00000001         -3.67     -0.00     -0.00
  -0.00000001  -0.00002491   0.00000002         -0.00     -3.66      0.00
  -0.00000001   0.00000002  -0.00002495         -0.00      0.00     -3.67


     Writing output data file CVgWGJoyuiacBmnv.save/

     init_run     :     27.65s CPU     27.97s WALL (       1 calls)
     electrons    :    362.84s CPU    370.17s WALL (       1 calls)
     forces       :     12.67s CPU     12.73s WALL (       1 calls)
     stress       :     15.78s CPU     15.80s WALL (       1 calls)

     Called by init_run:
     wfcinit      :     27.04s CPU     27.30s WALL (       1 calls)
     potinit      :      0.31s CPU      0.33s WALL (       1 calls)
     hinit0       :      0.14s CPU      0.14s WALL (       1 calls)

     Called by electrons:
     c_bands      :    322.07s CPU    328.45s WALL (      10 calls)
     sum_band     :     36.53s CPU     37.02s WALL (      10 calls)
     v_of_rho     :      0.49s CPU      0.51s WALL (      10 calls)
     newd         :      1.46s CPU      1.50s WALL (      10 calls)
     PAW_pot      :      2.60s CPU      2.60s WALL (      10 calls)
     mix_rho      :      0.11s CPU      0.11s WALL (      10 calls)

     Called by c_bands:
     init_us_2    :      2.04s CPU      2.13s WALL (     322 calls)
     cegterg      :    318.42s CPU    322.34s WALL (     140 calls)

     Called by sum_band:
     sum_band:bec :      0.03s CPU      0.03s WALL (     140 calls)
     addusdens    :      1.40s CPU      1.53s WALL (      10 calls)

     Called by *egterg:
     h_psi        :    188.47s CPU    191.19s WALL (     479 calls)
     s_psi        :     73.64s CPU     74.00s WALL (     479 calls)
     g_psi        :      0.25s CPU      0.25s WALL (     325 calls)
     cdiaghg      :      4.06s CPU      4.07s WALL (     451 calls)

     Called by h_psi:
     h_psi:pot    :    188.03s CPU    190.41s WALL (     479 calls)
     h_psi:calbec :     77.27s CPU     77.45s WALL (     479 calls)
     vloc_psi     :     35.07s CPU     37.15s WALL (     479 calls)
     add_vuspsi   :     75.69s CPU     75.81s WALL (     479 calls)

     General routines
     calbec       :    119.38s CPU    119.68s WALL (     689 calls)
     fft          :      0.24s CPU      0.26s WALL (     136 calls)
     ffts         :      0.02s CPU      0.02s WALL (      10 calls)
     fftw         :     38.01s CPU     40.13s WALL (   53738 calls)

     Parallel routines
     fft_scatt_xy :      4.68s CPU      4.95s WALL (   53884 calls)
     fft_scatt_yz :     12.34s CPU     13.06s WALL (   53884 calls)

     PWSCF        :   6m59.42s CPU   7m 7.38s WALL


   This run was terminated on:   1:38:21  17Jul2021            

=------------------------------------------------------------------------------=
   JOB DONE.
=------------------------------------------------------------------------------=
