
     Program PWSCF v.6.4.1 starts on 19Jul2021 at  9:37:39 

     This program is part of the open-source Quantum ESPRESSO suite
     for quantum simulation of materials; please cite
         "P. Giannozzi et al., J. Phys.:Condens. Matter 21 395502 (2009);
         "P. Giannozzi et al., J. Phys.:Condens. Matter 29 465901 (2017);
          URL http://www.quantum-espresso.org", 
     in publications or presentations arising from this work. More details at
     http://www.quantum-espresso.org/quote

     Parallel version (MPI), running on     4 processors

     MPI processes distributed on     1 nodes
     R & G space division:  proc/nbgrp/npool/nimage =       4
     Reading input from /cloud/Code/python/qeforfit/examples/al/01/wd/configs/21/config_0001.in
Warning: card &IONS ignored
Warning: card ION_DYNAMICS = 'BFGS', ignored
Warning: card / ignored
Warning: card &CELL ignored
Warning: card CELL_DYNAMICS = 'BFGS', ignored
Warning: card CELL_FACTOR = 2.0, ignored
Warning: card PRESS = 0.0, ignored
Warning: card / ignored

     Current dimensions of program PWSCF are:
     Max number of different atomic species (ntypx) = 10
     Max number of k-points (npk) =  40000
     Max angular momentum in pseudopotentials (lmaxx) =  3
               file Al.pbe-nl-kjpaw_psl.1.0.0.UPF: wavefunction(s)  3S 3P renormalized

     Subspace diagonalization in iterative solution of the eigenvalue problem:
     a serial algorithm will be used


     Parallelization info
     --------------------
     sticks:   dense  smooth     PW     G-vecs:    dense   smooth      PW
     Min         928     928    258                42646    42646    6208
     Max         929     929    259                42649    42649    6211
     Sum        3713    3713   1033               170589   170589   24837



     bravais-lattice index     =            0
     lattice parameter (alat)  =      15.2758  a.u.
     unit-cell volume          =    3564.6148 (a.u.)^3
     number of atoms/cell      =           32
     number of atomic types    =            1
     number of electrons       =        96.00
     number of Kohn-Sham states=           58
     kinetic-energy cutoff     =      50.0000  Ry
     charge density cutoff     =     200.0000  Ry
     convergence threshold     =      1.0E-06
     mixing beta               =       0.1000
     number of iterations used =           10  TF        mixing
     Exchange-correlation      = SLA PW PBX PBC ( 1  4  3  4 0 0)

     celldm(1)=  15.275808  celldm(2)=   0.000000  celldm(3)=   0.000000
     celldm(4)=   0.000000  celldm(5)=   0.000000  celldm(6)=   0.000000

     crystal axes: (cart. coord. in units of alat)
               a(1) = (   1.000000   0.000000   0.000000 )  
               a(2) = (   0.000000   1.000000   0.000000 )  
               a(3) = (   0.000000   0.000000   1.000000 )  

     reciprocal axes: (cart. coord. in units 2 pi/alat)
               b(1) = (  1.000000  0.000000  0.000000 )  
               b(2) = (  0.000000  1.000000  0.000000 )  
               b(3) = (  0.000000  0.000000  1.000000 )  


     PseudoPot. # 1 for Al read from file:
     /opt/pp/Al.pbe-nl-kjpaw_psl.1.0.0.UPF
     MD5 check sum: 1b67f78b73fe58c7924490f171ce8a1e
     Pseudo is Projector augmented-wave + core cor, Zval =  3.0
     Generated using "atomic" code by A. Dal Corso v.6.3
     Shape of augmentation charge: PSQ
     Using radial grid of 1135 points,  4 beta functions with: 
                l(1) =   0
                l(2) =   0
                l(3) =   1
                l(4) =   1
     Q(r) pseudized with 0 coefficients 


     atomic species   valence    mass     pseudopotential
        Al             3.00    26.98200     Al( 1.00)

     No symmetry found



   Cartesian axes

     site n.     atom                  positions (alat units)
         1           Al  tau(   1) = (  -0.0100795  -0.0088987  -0.0072604  )
         2           Al  tau(   2) = (   0.2430633   0.2355173  -0.0071964  )
         3           Al  tau(   3) = (   0.2382357  -0.0083113   0.2491064  )
         4           Al  tau(   4) = (  -0.0097247   0.2469571   0.2459770  )
         5           Al  tau(   5) = (  -0.0020044  -0.0021076   0.4875038  )
         6           Al  tau(   6) = (   0.2441780   0.2361489   0.4909356  )
         7           Al  tau(   7) = (   0.2416130  -0.0048574   0.7377010  )
         8           Al  tau(   8) = (  -0.0076276   0.2440160   0.7467166  )
         9           Al  tau(   9) = (  -0.0025180   0.4938525  -0.0095969  )
        10           Al  tau(  10) = (   0.2447428   0.7457676   0.0021819  )
        11           Al  tau(  11) = (   0.2461282   0.4938820   0.2478625  )
        12           Al  tau(  12) = (  -0.0080917   0.7421100   0.2415444  )
        13           Al  tau(  13) = (  -0.0060815   0.4952065   0.4936067  )
        14           Al  tau(  14) = (   0.2398285   0.7426055   0.4872142  )
        15           Al  tau(  15) = (   0.2502563   0.4849392   0.7323263  )
        16           Al  tau(  16) = (  -0.0183461   0.7325921   0.7406434  )
        17           Al  tau(  17) = (   0.4965367  -0.0119754  -0.0102489  )
        18           Al  tau(  18) = (   0.7383815   0.2434685  -0.0156912  )
        19           Al  tau(  19) = (   0.7306292  -0.0118490   0.2429940  )
        20           Al  tau(  20) = (   0.4901396   0.2397537   0.2361246  )
        21           Al  tau(  21) = (   0.4886273  -0.0009655   0.4900677  )
        22           Al  tau(  22) = (   0.7427487   0.2323211   0.4894994  )
        23           Al  tau(  23) = (   0.7418357  -0.0110865   0.7415534  )
        24           Al  tau(  24) = (   0.4911540   0.2376553   0.7406906  )
        25           Al  tau(  25) = (   0.4867088   0.4940710  -0.0153016  )
        26           Al  tau(  26) = (   0.7344622   0.7435733  -0.0015054  )
        27           Al  tau(  27) = (   0.7436539   0.4852869   0.2393287  )
        28           Al  tau(  28) = (   0.4932918   0.7349795   0.2466926  )
        29           Al  tau(  29) = (   0.4817690   0.4937095   0.4919662  )
        30           Al  tau(  30) = (   0.7454754   0.7404777   0.4867667  )
        31           Al  tau(  31) = (   0.7393559   0.4911000   0.7447357  )
        32           Al  tau(  32) = (   0.4912326   0.7393975   0.7385318  )

     number of k points=    14  Marzari-Vanderbilt smearing, width (Ry)=  0.0200
                       cart. coord. in units 2pi/alat
        k(    1) = (   0.1666667   0.1666667   0.1666667), wk =   0.1481481
        k(    2) = (   0.1666667   0.1666667  -0.5000000), wk =   0.1481481
        k(    3) = (   0.1666667  -0.5000000  -0.5000000), wk =   0.1481481
        k(    4) = (  -0.5000000  -0.5000000  -0.5000000), wk =   0.0740741
        k(    5) = (  -0.1666667  -0.1666667   0.1666667), wk =   0.1481481
        k(    6) = (  -0.1666667   0.1666667  -0.1666667), wk =   0.1481481
        k(    7) = (   0.1666667  -0.1666667  -0.1666667), wk =   0.1481481
        k(    8) = (  -0.1666667   0.1666667   0.5000000), wk =   0.1481481
        k(    9) = (  -0.5000000  -0.1666667   0.1666667), wk =   0.1481481
        k(   10) = (   0.5000000  -0.1666667  -0.1666667), wk =   0.1481481
        k(   11) = (  -0.1666667  -0.5000000   0.1666667), wk =   0.1481481
        k(   12) = (  -0.1666667   0.5000000  -0.1666667), wk =   0.1481481
        k(   13) = (  -0.5000000   0.1666667   0.5000000), wk =   0.1481481
        k(   14) = (  -0.5000000   0.5000000   0.1666667), wk =   0.1481481

     Dense  grid:   170589 G-vectors     FFT dimensions: (  72,  72,  72)

     Estimated max dynamical RAM per process >     208.44 MB

     Estimated total dynamical RAM >     833.78 MB

     Initial potential from superposition of free atoms

     starting charge   95.92671, renormalised to   96.00000
     Starting wfcs are  128 randomized atomic wfcs
     Checking if some PAW data can be deallocated... 

     total cpu time spent up to now is       31.0 secs

     Self-consistent Calculation

     iteration #  1     ecut=    50.00 Ry     beta= 0.10
     Davidson diagonalization with overlap
     ethr =  1.00E-02,  avg # of iterations =  3.0

     Threshold (ethr) on eigenvalues was too large:
     Diagonalizing with lowered threshold

     Davidson diagonalization with overlap
     ethr =  2.15E-04,  avg # of iterations =  3.6

     total cpu time spent up to now is      116.0 secs

     total energy              =   -1264.09132003 Ry
     Harris-Foulkes estimate   =   -1264.09851370 Ry
     estimated scf accuracy    <       0.20717210 Ry

     iteration #  2     ecut=    50.00 Ry     beta= 0.10
     Davidson diagonalization with overlap
     ethr =  2.16E-04,  avg # of iterations =  1.0

     total cpu time spent up to now is      142.6 secs

     total energy              =   -1264.03393549 Ry
     Harris-Foulkes estimate   =   -1264.09229923 Ry
     estimated scf accuracy    <       0.18033640 Ry

     iteration #  3     ecut=    50.00 Ry     beta= 0.10
     Davidson diagonalization with overlap
     ethr =  1.88E-04,  avg # of iterations =  1.0

     total cpu time spent up to now is      169.2 secs

     total energy              =   -1264.04173111 Ry
     Harris-Foulkes estimate   =   -1264.04177854 Ry
     estimated scf accuracy    <       0.00105120 Ry

     iteration #  4     ecut=    50.00 Ry     beta= 0.10
     Davidson diagonalization with overlap
     c_bands:  2 eigenvalues not converged
     ethr =  1.09E-06,  avg # of iterations =  7.5

     total cpu time spent up to now is      240.1 secs

     total energy              =   -1264.04424961 Ry
     Harris-Foulkes estimate   =   -1264.04423400 Ry
     estimated scf accuracy    <       0.00393512 Ry

     iteration #  5     ecut=    50.00 Ry     beta= 0.10
     Davidson diagonalization with overlap
     c_bands:  1 eigenvalues not converged
     ethr =  1.09E-06,  avg # of iterations =  2.4

     total cpu time spent up to now is      266.6 secs

     total energy              =   -1264.04441912 Ry
     Harris-Foulkes estimate   =   -1264.04425151 Ry
     estimated scf accuracy    <       0.00400271 Ry

     iteration #  6     ecut=    50.00 Ry     beta= 0.10
     Davidson diagonalization with overlap
     ethr =  1.09E-06,  avg # of iterations =  1.9

     total cpu time spent up to now is      292.2 secs

     total energy              =   -1264.04164145 Ry
     Harris-Foulkes estimate   =   -1264.04443359 Ry
     estimated scf accuracy    <       0.00523815 Ry

     iteration #  7     ecut=    50.00 Ry     beta= 0.10
     Davidson diagonalization with overlap
     ethr =  1.09E-06,  avg # of iterations =  6.1

     total cpu time spent up to now is      352.4 secs

     total energy              =   -1264.04131246 Ry
     Harris-Foulkes estimate   =   -1264.04531448 Ry
     estimated scf accuracy    <       0.01199241 Ry

     iteration #  8     ecut=    50.00 Ry     beta= 0.10
     Davidson diagonalization with overlap
     ethr =  1.09E-06,  avg # of iterations =  5.6

     total cpu time spent up to now is      410.0 secs

     total energy              =   -1264.04322540 Ry
     Harris-Foulkes estimate   =   -1264.04331696 Ry
     estimated scf accuracy    <       0.00040262 Ry

     iteration #  9     ecut=    50.00 Ry     beta= 0.10
     Davidson diagonalization with overlap
     ethr =  4.19E-07,  avg # of iterations =  2.6

     total cpu time spent up to now is      439.9 secs

     total energy              =   -1264.04329926 Ry
     Harris-Foulkes estimate   =   -1264.04328697 Ry
     estimated scf accuracy    <       0.00001341 Ry

     iteration # 10     ecut=    50.00 Ry     beta= 0.10
     Davidson diagonalization with overlap
     ethr =  1.40E-08,  avg # of iterations =  5.0

     total cpu time spent up to now is      499.4 secs

     total energy              =   -1264.04325416 Ry
     Harris-Foulkes estimate   =   -1264.04335340 Ry
     estimated scf accuracy    <       0.00045602 Ry

     iteration # 11     ecut=    50.00 Ry     beta= 0.10
     Davidson diagonalization with overlap
     ethr =  1.40E-08,  avg # of iterations =  4.9

     total cpu time spent up to now is      552.6 secs

     total energy              =   -1264.04329003 Ry
     Harris-Foulkes estimate   =   -1264.04329044 Ry
     estimated scf accuracy    <       0.00001437 Ry

     iteration # 12     ecut=    50.00 Ry     beta= 0.10
     Davidson diagonalization with overlap
     ethr =  1.40E-08,  avg # of iterations =  1.0

     total cpu time spent up to now is      578.7 secs

     total energy              =   -1264.04328629 Ry
     Harris-Foulkes estimate   =   -1264.04329007 Ry
     estimated scf accuracy    <       0.00001222 Ry

     iteration # 13     ecut=    50.00 Ry     beta= 0.10
     Davidson diagonalization with overlap
     ethr =  1.27E-08,  avg # of iterations =  2.0

     total cpu time spent up to now is      609.1 secs

     End of self-consistent calculation

          k = 0.1667 0.1667 0.1667 ( 21266 PWs)   bands (ev):

    -3.0589  -1.6304  -1.5635  -1.4803  -0.1782  -0.1493  -0.0930  -0.0542
    -0.0220   0.0738   1.2817   1.3222   1.3809   1.4177   1.4398   1.4618
     1.5195   2.7437   2.8137   2.8471   2.8776   2.9055   2.9693   4.1937
     4.2113   4.2346   4.3059   4.3299   4.3465   5.5403   5.5491   5.6330
     5.6502   5.6903   5.7149   5.7571   6.9401   6.9606   6.9801   7.0340
     7.0542   7.0781   7.0988   7.1257   7.1828   7.3779   7.3882   7.4182
     8.3907   8.4006   8.4486   8.4803   8.5150   8.5354   8.7373   8.7541
     8.7835   8.8292

          k = 0.1667 0.1667-0.5000 ( 21228 PWs)   bands (ev):

    -2.5932  -2.5225  -1.1102  -1.0896  -1.0408  -1.0022   0.3119   0.3710
     0.4168   0.4450   0.4856   0.5002   1.8379   1.8475   1.8770   1.8929
     1.9338   1.9495   3.2738   3.3019   3.3199   3.3343   3.3702   3.4038
     4.6330   4.6457   4.6792   4.7068   4.7352   4.7648   4.7691   4.8035
     4.8149   4.8477   6.0753   6.0929   6.1192   6.1758   6.2028   6.2155
     6.2305   6.2584   7.4698   7.4918   7.5367   7.5810   7.6119   7.6465
     7.7995   7.8293   7.8688   7.8935   8.9344   8.9411   8.9693   8.9952
     9.2815   9.2959

          k = 0.1667-0.5000-0.5000 ( 21296 PWs)   bands (ev):

    -2.1221  -2.0958  -2.0225  -1.9883  -0.6294  -0.5978  -0.5299  -0.4924
     0.8467   0.8785   0.9445   0.9817   2.2596   2.2952   2.3123   2.3407
     2.3709   2.4299   2.4520   2.4782   3.6968   3.7383   3.7592   3.7854
     3.8078   3.8716   3.8957   3.9138   5.0902   5.1252   5.1558   5.1870
     5.1965   5.2108   5.2349   5.2566   5.2789   5.3328   5.3581   5.3770
     6.6215   6.6388   6.6748   6.6950   8.0486   8.0693   8.0977   8.1192
     8.3321   8.3631   8.4188   8.4569   9.2434   9.2906   9.3193   9.3493
     9.3771   9.4277

          k =-0.5000-0.5000-0.5000 ( 21368 PWs)   bands (ev):

    -1.6906  -1.6667  -1.5935  -1.5739  -1.5399  -1.4920  -1.4780  -1.4076
     2.6371   2.6428   2.6825   2.6989   2.7343   2.7613   2.7665   2.7952
     2.8031   2.8194   2.8313   2.8431   2.8537   2.8678   2.8803   2.8877
     2.9080   2.9345   2.9539   2.9567   2.9811   3.0274   3.0641   3.1232
     6.9385   6.9657   6.9883   7.0048   7.0340   7.0544   7.0646   7.0719
     7.0747   7.0953   7.1292   7.1429   7.1623   7.1709   7.1775   7.1946
     7.2051   7.2311   7.2374   7.2451   7.2745   7.2881   7.3367   7.3412
    11.2264  11.2368

          k =-0.1667-0.1667 0.1667 ( 21266 PWs)   bands (ev):

    -3.0590  -1.6148  -1.5665  -1.4965  -0.1706  -0.1277  -0.0939  -0.0512
     0.0013   0.0201   1.2722   1.3586   1.3766   1.3997   1.4324   1.4647
     1.5201   2.7768   2.8151   2.8378   2.8679   2.8992   2.9609   4.2062
     4.2224   4.2309   4.3097   4.3217   4.3305   5.5132   5.5987   5.6124
     5.6448   5.6853   5.7286   5.7495   6.9566   6.9752   7.0043   7.0211
     7.0518   7.0633   7.0927   7.1217   7.1705   7.3807   7.3950   7.4106
     8.3981   8.4261   8.4565   8.4744   8.4912   8.5346   8.7309   8.7633
     8.7923   8.8214

          k =-0.1667 0.1667-0.1667 ( 21266 PWs)   bands (ev):

    -3.0589  -1.6288  -1.5605  -1.4865  -0.1793  -0.1397  -0.0834  -0.0442
    -0.0126   0.0355   1.2978   1.3233   1.3635   1.3959   1.4392   1.4801
     1.5250   2.7767   2.8065   2.8286   2.8808   2.9099   2.9545   4.1959
     4.2163   4.2377   4.3009   4.3259   4.3480   5.5413   5.5591   5.5955
     5.6319   5.6939   5.7452   5.7618   6.9631   6.9683   6.9933   7.0164
     7.0476   7.0818   7.1019   7.1259   7.1630   7.3679   7.3969   7.4156
     8.3920   8.4142   8.4320   8.4996   8.5094   8.5360   8.7272   8.7612
     8.7872   8.8265

          k = 0.1667-0.1667-0.1667 ( 21266 PWs)   bands (ev):

    -3.0589  -1.6197  -1.5753  -1.4801  -0.1842  -0.1268  -0.0881  -0.0752
    -0.0365   0.0917   1.3018   1.3193   1.3492   1.4038   1.4298   1.4593
     1.5593   2.7548   2.8083   2.8257   2.8700   2.9029   2.9944   4.1915
     4.2192   4.2405   4.2992   4.3239   4.3469   5.5375   5.5674   5.6026
     5.6414   5.6821   5.7480   5.7577   6.9283   6.9523   6.9904   7.0134
     7.0448   7.0724   7.1176   7.1416   7.1821   7.3764   7.3965   7.4304
     8.3734   8.4234   8.4392   8.4847   8.4988   8.5369   8.7410   8.7565
     8.7757   8.8259

          k =-0.1667 0.1667 0.5000 ( 21228 PWs)   bands (ev):

    -2.5932  -2.5225  -1.1239  -1.0733  -1.0539  -0.9906   0.3214   0.3605
     0.4045   0.4443   0.4789   0.5201   1.8095   1.8588   1.8798   1.8966
     1.9274   1.9670   3.2752   3.2925   3.3212   3.3456   3.3770   3.3927
     4.6156   4.6637   4.6894   4.7137   4.7243   4.7464   4.7557   4.7762
     4.8419   4.8737   6.0556   6.1122   6.1227   6.1722   6.1934   6.2215
     6.2331   6.2571   7.4620   7.4996   7.5361   7.5755   7.6093   7.6465
     7.7961   7.8386   7.8590   7.9080   8.9248   8.9518   8.9739   8.9947
     9.2732   9.3025

          k =-0.5000-0.1667 0.1667 ( 21228 PWs)   bands (ev):

    -2.5965  -2.5181  -1.1436  -1.0645  -1.0434  -0.9933   0.3296   0.3740
     0.4056   0.4443   0.4735   0.5047   1.8198   1.8482   1.8691   1.9035
     1.9425   1.9582   3.2674   3.2952   3.3264   3.3478   3.3662   3.3930
     4.6377   4.6465   4.6973   4.7108   4.7205   4.7575   4.7798   4.8028
     4.8076   4.8448   6.0385   6.1159   6.1435   6.1733   6.1960   6.2143
     6.2249   6.2624   7.4543   7.5053   7.5506   7.5745   7.6135   7.6425
     7.8012   7.8152   7.8610   7.9080   8.9218   8.9562   8.9596   9.0159
     9.2618   9.3082

          k = 0.5000-0.1667-0.1667 ( 21228 PWs)   bands (ev):

    -2.5965  -2.5181  -1.1512  -1.0633  -1.0453  -0.9815   0.2926   0.3686
     0.3992   0.4511   0.4650   0.5582   1.8248   1.8378   1.8706   1.8941
     1.9429   1.9630   3.2544   3.2809   3.3128   3.3505   3.3819   3.4220
     4.6129   4.6382   4.6839   4.6947   4.7182   4.7556   4.7643   4.8111
     4.8451   4.8884   6.0230   6.1159   6.1375   6.1660   6.1975   6.2134
     6.2387   6.2661   7.4548   7.4930   7.5178   7.5834   7.6204   7.6421
     7.7869   7.8401   7.8775   7.9117   8.9302   8.9534   8.9771   9.0003
     9.2624   9.3007

          k =-0.1667-0.5000 0.1667 ( 21228 PWs)   bands (ev):

    -2.5679  -2.5484  -1.1190  -1.1060  -1.0313  -0.9883   0.3410   0.3613
     0.4094   0.4195   0.4721   0.5398   1.8336   1.8588   1.8792   1.8909
     1.9137   1.9469   3.2648   3.2808   3.3269   3.3479   3.3782   3.4000
     4.6514   4.6665   4.6760   4.6962   4.7165   4.7395   4.7696   4.7772
     4.8535   4.8754   6.0613   6.0750   6.1483   6.1895   6.2052   6.2155
     6.2224   6.2432   7.4711   7.5083   7.5361   7.5460   7.6225   7.6342
     7.8305   7.8411   7.8575   7.8763   8.9536   8.9584   8.9677   8.9749
     9.2753   9.3142

          k =-0.1667 0.5000-0.1667 ( 21228 PWs)   bands (ev):

    -2.5678  -2.5483  -1.1277  -1.1125  -1.0134  -0.9896   0.3418   0.3671
     0.4111   0.4285   0.4713   0.5171   1.8280   1.8409   1.8791   1.9184
     1.9261   1.9399   3.2551   3.2718   3.3215   3.3444   3.3953   3.4094
     4.6432   4.6613   4.6765   4.6998   4.7183   4.7251   4.7855   4.8121
     4.8295   4.8596   6.0557   6.0777   6.1565   6.1789   6.2041   6.2119
     6.2263   6.2599   7.4843   7.4981   7.5386   7.5631   7.6195   7.6277
     7.8322   7.8392   7.8407   7.8779   8.9424   8.9495   8.9659   8.9909
     9.2870   9.3089

          k =-0.5000 0.1667 0.5000 ( 21296 PWs)   bands (ev):

    -2.1607  -2.0807  -2.0191  -1.9593  -0.6730  -0.5896  -0.5306  -0.4663
     0.8113   0.8837   0.9483   1.0079   2.2498   2.2698   2.3086   2.3734
     2.4002   2.4097   2.4465   2.5009   3.6866   3.7009   3.7437   3.8118
     3.8417   3.8446   3.8817   3.9360   5.0483   5.1279   5.1477   5.1671
     5.1942   5.2184   5.2564   5.2764   5.3027   5.3197   5.3467   5.4036
     6.6091   6.6411   6.6800   6.7069   8.0274   8.0636   8.0986   8.1306
     8.3000   8.3714   8.4168   8.4809   9.2434   9.2639   9.3060   9.3751
     9.3954   9.4132

          k =-0.5000 0.5000 0.1667 ( 21296 PWs)   bands (ev):

    -2.1183  -2.0845  -2.0213  -2.0075  -0.6207  -0.5884  -0.5213  -0.5146
     0.8495   0.8807   0.9512   0.9618   2.2657   2.2998   2.3145   2.3576
     2.3803   2.4236   2.4465   2.4628   3.7010   3.7407   3.7543   3.7952
     3.8151   3.8589   3.8908   3.9019   5.0918   5.1228   5.1677   5.1897
     5.2026   5.2104   5.2250   5.2637   5.2849   5.3245   5.3457   5.3676
     6.6311   6.6505   6.6806   6.6887   8.0459   8.0658   8.1021   8.1071
     8.3377   8.3678   8.4327   8.4363   9.2545   9.2938   9.3125   9.3552
     9.3853   9.4194

     the Fermi energy is     7.8032 ev

!    total energy              =   -1264.04328804 Ry
     Harris-Foulkes estimate   =   -1264.04328826 Ry
     estimated scf accuracy    <       0.00000029 Ry

     total all-electron energy =    -15540.612265 Ry

     The total energy is the sum of the following terms:

     one-electron contribution =     100.98534312 Ry
     hartree contribution      =       0.30362067 Ry
     xc contribution           =     -82.92769604 Ry
     ewald contribution        =    -172.71758348 Ry
     one-center paw contrib.   =   -1109.69114949 Ry
     smearing contrib. (-TS)   =       0.00417717 Ry

     convergence has been achieved in  13 iterations

     Forces acting on atoms (cartesian axes, Ry/au):

     atom    1 type  1   force =    -0.00020875   -0.00016125    0.00040232
     atom    2 type  1   force =    -0.00276691    0.00535029    0.00188224
     atom    3 type  1   force =     0.00658209   -0.00022878   -0.01583676
     atom    4 type  1   force =     0.00065533   -0.00429662   -0.00921517
     atom    5 type  1   force =    -0.01347945   -0.01084582    0.00935656
     atom    6 type  1   force =    -0.00377853    0.01369137   -0.00042228
     atom    7 type  1   force =    -0.00341928   -0.01403806    0.00939671
     atom    8 type  1   force =     0.00114589   -0.00212013   -0.00719548
     atom    9 type  1   force =     0.00043991   -0.00222285    0.00390355
     atom   10 type  1   force =    -0.00398987   -0.00133644   -0.01569478
     atom   11 type  1   force =    -0.00785949   -0.00769427   -0.01197535
     atom   12 type  1   force =    -0.00251372    0.00102576   -0.00206346
     atom   13 type  1   force =    -0.00440796   -0.00943256   -0.00144860
     atom   14 type  1   force =    -0.00058825    0.00430393    0.01210401
     atom   15 type  1   force =    -0.01644020    0.00697275    0.01428503
     atom   16 type  1   force =     0.01556203    0.01436119    0.00382250
     atom   17 type  1   force =    -0.01238675    0.00219768    0.00161223
     atom   18 type  1   force =     0.00496048   -0.00186610    0.01188118
     atom   19 type  1   force =     0.01380261    0.00578949   -0.00195725
     atom   20 type  1   force =     0.00202314    0.00557283    0.00183812
     atom   21 type  1   force =     0.00559448   -0.01570020    0.00293241
     atom   22 type  1   force =    -0.00294590    0.01498930    0.00357918
     atom   23 type  1   force =     0.00331655   -0.00259352   -0.00544838
     atom   24 type  1   force =     0.00353083    0.00359628   -0.00216974
     atom   25 type  1   force =     0.00212695   -0.00482054    0.00953191
     atom   26 type  1   force =     0.00927545   -0.00682876   -0.00717145
     atom   27 type  1   force =    -0.00475118    0.00137856    0.00283162
     atom   28 type  1   force =    -0.00228078    0.00657846   -0.00202447
     atom   29 type  1   force =     0.02448198   -0.00918371   -0.00353329
     atom   30 type  1   force =    -0.00704727    0.00103870    0.00674235
     atom   31 type  1   force =    -0.00259194   -0.00173271   -0.00929922
     atom   32 type  1   force =    -0.00204150    0.00825575   -0.00064625

     Total force =     0.075891     Total SCF correction =     0.000654


     Computing stress (Cartesian axis) and pressure

          total   stress  (Ry/bohr**3)                   (kbar)     P=    1.57
   0.00001166  -0.00000098  -0.00000129          1.71     -0.14     -0.19
  -0.00000098   0.00001088   0.00000090         -0.14      1.60      0.13
  -0.00000129   0.00000090   0.00000948         -0.19      0.13      1.39


     Writing output data file RlLckEmHImHvsLsA.save/

     init_run     :     29.98s CPU     30.23s WALL (       1 calls)
     electrons    :    573.25s CPU    578.10s WALL (       1 calls)
     forces       :     11.94s CPU     11.97s WALL (       1 calls)
     stress       :     14.68s CPU     14.73s WALL (       1 calls)

     Called by init_run:
     wfcinit      :     29.24s CPU     29.46s WALL (       1 calls)
     potinit      :      0.37s CPU      0.38s WALL (       1 calls)
     hinit0       :      0.17s CPU      0.17s WALL (       1 calls)

     Called by electrons:
     c_bands      :    518.82s CPU    523.04s WALL (      14 calls)
     sum_band     :     48.49s CPU     49.07s WALL (      14 calls)
     v_of_rho     :      0.67s CPU      0.70s WALL (      14 calls)
     newd         :      1.99s CPU      2.03s WALL (      14 calls)
     PAW_pot      :      3.56s CPU      3.56s WALL (      14 calls)
     mix_rho      :      0.19s CPU      0.19s WALL (      14 calls)

     Called by c_bands:
     init_us_2    :      2.81s CPU      2.85s WALL (     434 calls)
     cegterg      :    513.28s CPU    516.78s WALL (     196 calls)

     Called by sum_band:
     sum_band:bec :      0.04s CPU      0.04s WALL (     196 calls)
     addusdens    :      1.94s CPU      1.96s WALL (      14 calls)

     Called by *egterg:
     h_psi        :    281.78s CPU    284.96s WALL (     876 calls)
     s_psi        :    111.86s CPU    112.04s WALL (     876 calls)
     g_psi        :      0.43s CPU      0.43s WALL (     666 calls)
     cdiaghg      :      9.30s CPU      9.30s WALL (     848 calls)

     Called by h_psi:
     h_psi:pot    :    281.11s CPU    284.24s WALL (     876 calls)
     h_psi:calbec :    115.03s CPU    115.31s WALL (     876 calls)
     vloc_psi     :     52.66s CPU     55.36s WALL (     876 calls)
     add_vuspsi   :    113.41s CPU    113.57s WALL (     876 calls)

     General routines
     calbec       :    164.61s CPU    164.96s WALL (    1142 calls)
     fft          :      0.40s CPU      0.42s WALL (     180 calls)
     ffts         :      0.02s CPU      0.02s WALL (      14 calls)
     fftw         :     55.60s CPU     58.53s WALL (   82234 calls)

     Parallel routines
     fft_scatt_xy :      7.24s CPU      7.64s WALL (   82428 calls)
     fft_scatt_yz :     16.72s CPU     17.62s WALL (   82428 calls)

     PWSCF        :  10m30.36s CPU  10m36.07s WALL


   This run was terminated on:   9:48:15  19Jul2021            

=------------------------------------------------------------------------------=
   JOB DONE.
=------------------------------------------------------------------------------=
