
     Program PWSCF v.6.4.1 starts on 19Jul2021 at  4:56:42 

     This program is part of the open-source Quantum ESPRESSO suite
     for quantum simulation of materials; please cite
         "P. Giannozzi et al., J. Phys.:Condens. Matter 21 395502 (2009);
         "P. Giannozzi et al., J. Phys.:Condens. Matter 29 465901 (2017);
          URL http://www.quantum-espresso.org", 
     in publications or presentations arising from this work. More details at
     http://www.quantum-espresso.org/quote

     Parallel version (MPI), running on     4 processors

     MPI processes distributed on     1 nodes
     R & G space division:  proc/nbgrp/npool/nimage =       4
     Reading input from /cloud/Code/python/qeforfit/examples/al/01/wd/configs/15/config_0003.in
Warning: card &IONS ignored
Warning: card ION_DYNAMICS = 'BFGS', ignored
Warning: card / ignored
Warning: card &CELL ignored
Warning: card CELL_DYNAMICS = 'BFGS', ignored
Warning: card CELL_FACTOR = 2.0, ignored
Warning: card PRESS = 0.0, ignored
Warning: card / ignored

     Current dimensions of program PWSCF are:
     Max number of different atomic species (ntypx) = 10
     Max number of k-points (npk) =  40000
     Max angular momentum in pseudopotentials (lmaxx) =  3
               file Al.pbe-nl-kjpaw_psl.1.0.0.UPF: wavefunction(s)  3S 3P renormalized

     Subspace diagonalization in iterative solution of the eigenvalue problem:
     a serial algorithm will be used


     Parallelization info
     --------------------
     sticks:   dense  smooth     PW     G-vecs:    dense   smooth      PW
     Min         928     928    258                42646    42646    6208
     Max         929     929    259                42649    42649    6211
     Sum        3713    3713   1033               170589   170589   24837



     bravais-lattice index     =            0
     lattice parameter (alat)  =      15.2760  a.u.
     unit-cell volume          =    3564.7580 (a.u.)^3
     number of atoms/cell      =           32
     number of atomic types    =            1
     number of electrons       =        96.00
     number of Kohn-Sham states=           58
     kinetic-energy cutoff     =      50.0000  Ry
     charge density cutoff     =     200.0000  Ry
     convergence threshold     =      1.0E-06
     mixing beta               =       0.1000
     number of iterations used =           10  TF        mixing
     Exchange-correlation      = SLA PW PBX PBC ( 1  4  3  4 0 0)

     celldm(1)=  15.276013  celldm(2)=   0.000000  celldm(3)=   0.000000
     celldm(4)=   0.000000  celldm(5)=   0.000000  celldm(6)=   0.000000

     crystal axes: (cart. coord. in units of alat)
               a(1) = (   1.000000   0.000000   0.000000 )  
               a(2) = (   0.000000   1.000000   0.000000 )  
               a(3) = (   0.000000   0.000000   1.000000 )  

     reciprocal axes: (cart. coord. in units 2 pi/alat)
               b(1) = (  1.000000  0.000000  0.000000 )  
               b(2) = (  0.000000  1.000000  0.000000 )  
               b(3) = (  0.000000  0.000000  1.000000 )  


     PseudoPot. # 1 for Al read from file:
     /opt/pp/Al.pbe-nl-kjpaw_psl.1.0.0.UPF
     MD5 check sum: 1b67f78b73fe58c7924490f171ce8a1e
     Pseudo is Projector augmented-wave + core cor, Zval =  3.0
     Generated using "atomic" code by A. Dal Corso v.6.3
     Shape of augmentation charge: PSQ
     Using radial grid of 1135 points,  4 beta functions with: 
                l(1) =   0
                l(2) =   0
                l(3) =   1
                l(4) =   1
     Q(r) pseudized with 0 coefficients 


     atomic species   valence    mass     pseudopotential
        Al             3.00    26.98200     Al( 1.00)

     No symmetry found



   Cartesian axes

     site n.     atom                  positions (alat units)
         1           Al  tau(   1) = (  -0.0057596  -0.0050849  -0.0041488  )
         2           Al  tau(   2) = (   0.2460362   0.2417243  -0.0041122  )
         3           Al  tau(   3) = (   0.2432776  -0.0047492   0.2494894  )
         4           Al  tau(   4) = (  -0.0055569   0.2482612   0.2477011  )
         5           Al  tau(   5) = (  -0.0011454  -0.0012043   0.4928594  )
         6           Al  tau(   6) = (   0.2466732   0.2420852   0.4948204  )
         7           Al  tau(   7) = (   0.2452075  -0.0027756   0.7429721  )
         8           Al  tau(   8) = (  -0.0043585   0.2465806   0.7481238  )
         9           Al  tau(   9) = (  -0.0014388   0.4964872  -0.0054839  )
        10           Al  tau(  10) = (   0.2469960   0.7475815   0.0012468  )
        11           Al  tau(  11) = (   0.2477876   0.4965040   0.2487786  )
        12           Al  tau(  12) = (  -0.0046238   0.7454915   0.2451683  )
        13           Al  tau(  13) = (  -0.0034751   0.4972609   0.4963467  )
        14           Al  tau(  14) = (   0.2441878   0.7457746   0.4926939  )
        15           Al  tau(  15) = (   0.2501464   0.4913939   0.7399009  )
        16           Al  tau(  16) = (  -0.0104833   0.7400528   0.7446534  )
        17           Al  tau(  17) = (   0.4980210  -0.0068430  -0.0058564  )
        18           Al  tau(  18) = (   0.7433609   0.2462677  -0.0089663  )
        19           Al  tau(  19) = (   0.7389311  -0.0067708   0.2459966  )
        20           Al  tau(  20) = (   0.4943655   0.2441451   0.2420713  )
        21           Al  tau(  21) = (   0.4935014  -0.0005517   0.4943245  )
        22           Al  tau(  22) = (   0.7458565   0.2398979   0.4939997  )
        23           Al  tau(  23) = (   0.7453347  -0.0063351   0.7451735  )
        24           Al  tau(  24) = (   0.4949452   0.2429460   0.7446804  )
        25           Al  tau(  25) = (   0.4924051   0.4966121  -0.0087437  )
        26           Al  tau(  26) = (   0.7411214   0.7463276  -0.0008602  )
        27           Al  tau(  27) = (   0.7463737   0.4915927   0.2439022  )
        28           Al  tau(  28) = (   0.4961668   0.7414169   0.2481101  )
        29           Al  tau(  29) = (   0.4895824   0.4964055   0.4954093  )
        30           Al  tau(  30) = (   0.7474145   0.7445587   0.4924382  )
        31           Al  tau(  31) = (   0.7439177   0.4949143   0.7469919  )
        32           Al  tau(  32) = (   0.4949901   0.7439415   0.7434468  )

     number of k points=    14  Marzari-Vanderbilt smearing, width (Ry)=  0.0200
                       cart. coord. in units 2pi/alat
        k(    1) = (   0.1666667   0.1666667   0.1666667), wk =   0.1481481
        k(    2) = (   0.1666667   0.1666667  -0.5000000), wk =   0.1481481
        k(    3) = (   0.1666667  -0.5000000  -0.5000000), wk =   0.1481481
        k(    4) = (  -0.5000000  -0.5000000  -0.5000000), wk =   0.0740741
        k(    5) = (  -0.1666667  -0.1666667   0.1666667), wk =   0.1481481
        k(    6) = (  -0.1666667   0.1666667  -0.1666667), wk =   0.1481481
        k(    7) = (   0.1666667  -0.1666667  -0.1666667), wk =   0.1481481
        k(    8) = (  -0.1666667   0.1666667   0.5000000), wk =   0.1481481
        k(    9) = (  -0.5000000  -0.1666667   0.1666667), wk =   0.1481481
        k(   10) = (   0.5000000  -0.1666667  -0.1666667), wk =   0.1481481
        k(   11) = (  -0.1666667  -0.5000000   0.1666667), wk =   0.1481481
        k(   12) = (  -0.1666667   0.5000000  -0.1666667), wk =   0.1481481
        k(   13) = (  -0.5000000   0.1666667   0.5000000), wk =   0.1481481
        k(   14) = (  -0.5000000   0.5000000   0.1666667), wk =   0.1481481

     Dense  grid:   170589 G-vectors     FFT dimensions: (  72,  72,  72)

     Estimated max dynamical RAM per process >     208.44 MB

     Estimated total dynamical RAM >     833.78 MB

     Initial potential from superposition of free atoms

     starting charge   95.92671, renormalised to   96.00000
     Starting wfcs are  128 randomized atomic wfcs
     Checking if some PAW data can be deallocated... 

     total cpu time spent up to now is       28.6 secs

     Self-consistent Calculation

     iteration #  1     ecut=    50.00 Ry     beta= 0.10
     Davidson diagonalization with overlap
     ethr =  1.00E-02,  avg # of iterations =  3.0

     Threshold (ethr) on eigenvalues was too large:
     Diagonalizing with lowered threshold

     Davidson diagonalization with overlap
     ethr =  2.00E-04,  avg # of iterations =  3.6

     total cpu time spent up to now is      111.3 secs

     total energy              =   -1264.10359026 Ry
     Harris-Foulkes estimate   =   -1264.11008046 Ry
     estimated scf accuracy    <       0.18926897 Ry

     iteration #  2     ecut=    50.00 Ry     beta= 0.10
     Davidson diagonalization with overlap
     ethr =  1.97E-04,  avg # of iterations =  1.0

     total cpu time spent up to now is      137.8 secs

     total energy              =   -1264.05330087 Ry
     Harris-Foulkes estimate   =   -1264.10445288 Ry
     estimated scf accuracy    <       0.16452079 Ry

     iteration #  3     ecut=    50.00 Ry     beta= 0.10
     Davidson diagonalization with overlap
     ethr =  1.71E-04,  avg # of iterations =  1.0

     total cpu time spent up to now is      163.9 secs

     total energy              =   -1264.05779104 Ry
     Harris-Foulkes estimate   =   -1264.05784258 Ry
     estimated scf accuracy    <       0.00072265 Ry

     iteration #  4     ecut=    50.00 Ry     beta= 0.10
     Davidson diagonalization with overlap
     c_bands:  2 eigenvalues not converged
     ethr =  7.53E-07,  avg # of iterations =  6.2

     total cpu time spent up to now is      231.6 secs

     total energy              =   -1264.05918049 Ry
     Harris-Foulkes estimate   =   -1264.05917700 Ry
     estimated scf accuracy    <       0.00148988 Ry

     iteration #  5     ecut=    50.00 Ry     beta= 0.10
     Davidson diagonalization with overlap
     c_bands:  1 eigenvalues not converged
     ethr =  7.53E-07,  avg # of iterations =  2.4

     total cpu time spent up to now is      258.6 secs

     total energy              =   -1264.05882268 Ry
     Harris-Foulkes estimate   =   -1264.05918204 Ry
     estimated scf accuracy    <       0.00150839 Ry

     iteration #  6     ecut=    50.00 Ry     beta= 0.10
     Davidson diagonalization with overlap
     ethr =  7.53E-07,  avg # of iterations =  1.1

     total cpu time spent up to now is      284.8 secs

     total energy              =   -1264.05846229 Ry
     Harris-Foulkes estimate   =   -1264.05885261 Ry
     estimated scf accuracy    <       0.00072700 Ry

     iteration #  7     ecut=    50.00 Ry     beta= 0.10
     Davidson diagonalization with overlap
     ethr =  7.53E-07,  avg # of iterations =  3.6

     total cpu time spent up to now is      323.6 secs

     total energy              =   -1264.05867502 Ry
     Harris-Foulkes estimate   =   -1264.05868215 Ry
     estimated scf accuracy    <       0.00020071 Ry

     iteration #  8     ecut=    50.00 Ry     beta= 0.10
     Davidson diagonalization with overlap
     ethr =  2.09E-07,  avg # of iterations =  1.2

     total cpu time spent up to now is      349.8 secs

     total energy              =   -1264.05865251 Ry
     Harris-Foulkes estimate   =   -1264.05867962 Ry
     estimated scf accuracy    <       0.00017926 Ry

     iteration #  9     ecut=    50.00 Ry     beta= 0.10
     Davidson diagonalization with overlap
     ethr =  1.87E-07,  avg # of iterations =  1.0

     total cpu time spent up to now is      376.1 secs

     total energy              =   -1264.05863026 Ry
     Harris-Foulkes estimate   =   -1264.05865885 Ry
     estimated scf accuracy    <       0.00005817 Ry

     iteration # 10     ecut=    50.00 Ry     beta= 0.10
     Davidson diagonalization with overlap
     ethr =  6.06E-08,  avg # of iterations =  4.1

     total cpu time spent up to now is      418.5 secs

     total energy              =   -1264.05866412 Ry
     Harris-Foulkes estimate   =   -1264.05867527 Ry
     estimated scf accuracy    <       0.00013787 Ry

     iteration # 11     ecut=    50.00 Ry     beta= 0.10
     Davidson diagonalization with overlap
     ethr =  6.06E-08,  avg # of iterations =  1.2

     total cpu time spent up to now is      444.7 secs

     total energy              =   -1264.05863878 Ry
     Harris-Foulkes estimate   =   -1264.05866533 Ry
     estimated scf accuracy    <       0.00008505 Ry

     iteration # 12     ecut=    50.00 Ry     beta= 0.10
     Davidson diagonalization with overlap
     ethr =  6.06E-08,  avg # of iterations =  2.8

     total cpu time spent up to now is      478.4 secs

     total energy              =   -1264.05865167 Ry
     Harris-Foulkes estimate   =   -1264.05865249 Ry
     estimated scf accuracy    <       0.00000175 Ry

     iteration # 13     ecut=    50.00 Ry     beta= 0.10
     Davidson diagonalization with overlap
     ethr =  1.83E-09,  avg # of iterations =  3.4

     total cpu time spent up to now is      516.9 secs

     End of self-consistent calculation

          k = 0.1667 0.1667 0.1667 ( 21266 PWs)   bands (ev):

    -3.0510  -1.5920  -1.5533  -1.5053  -0.1249  -0.1099  -0.0778  -0.0557
    -0.0368   0.0193   1.3376   1.3605   1.3935   1.4151   1.4276   1.4409
     1.4735   2.7960   2.8345   2.8533   2.8711   2.8873   2.9234   4.2104
     4.2209   4.2332   4.3117   4.3251   4.3355   5.5825   5.5871   5.6352
     5.6459   5.6684   5.6863   5.7504   6.9917   7.0020   7.0139   7.0457
     7.0564   7.0685   7.0830   7.0972   7.1328   7.3840   7.3927   7.4079
     8.4239   8.4309   8.4580   8.4782   8.4985   8.5082   8.7667   8.7751
     8.7947   8.8190

          k = 0.1667 0.1667-0.5000 ( 21228 PWs)   bands (ev):

    -2.5691  -2.5295  -1.0810  -1.0694  -1.0432  -1.0193   0.3655   0.3986
     0.4243   0.4404   0.4639   0.4725   1.8627   1.8687   1.8843   1.8932
     1.9177   1.9256   3.3021   3.3192   3.3287   3.3368   3.3576   3.3777
     4.6665   4.6731   4.7018   4.7095   4.7414   4.7612   4.7659   4.7857
     4.8025   4.8193   6.1004   6.1109   6.1301   6.1643   6.2018   6.2118
     6.2209   6.2376   7.4991   7.5100   7.5369   7.5628   7.6196   7.6403
     7.8198   7.8331   7.8580   7.8730   8.9499   8.9535   8.9712   8.9850
     9.3007   9.3093

          k = 0.1667-0.5000-0.5000 ( 21296 PWs)   bands (ev):

    -2.0864  -2.0701  -2.0302  -2.0089  -0.5953  -0.5771  -0.5390  -0.5165
     0.8797   0.8979   0.9355   0.9581   2.3090   2.3303   2.3411   2.3565
     2.3726   2.4071   2.4209   2.4339   3.7469   3.7704   3.7826   3.7978
     3.8104   3.8473   3.8617   3.8720   5.1231   5.1430   5.1804   5.2001
     5.2122   5.2281   5.2404   5.2561   5.2731   5.3056   5.3212   5.3315
     6.6384   6.6480   6.6681   6.6799   8.0676   8.0784   8.0958   8.1084
     8.3632   8.3803   8.4123   8.4342   9.3023   9.3296   9.3462   9.3642
     9.3801   9.4188

          k =-0.5000-0.5000-0.5000 ( 21368 PWs)   bands (ev):

    -1.6262  -1.6127  -1.5717  -1.5607  -1.5409  -1.5132  -1.5047  -1.4639
     2.7320   2.7358   2.7578   2.7673   2.7875   2.8030   2.8058   2.8216
     2.8264   2.8362   2.8421   2.8495   2.8558   2.8632   2.8714   2.8751
     2.8871   2.9019   2.9130   2.9151   2.9291   2.9549   2.9765   3.0102
     7.0279   7.0436   7.0561   7.0652   7.0827   7.0933   7.0997   7.1041
     7.1055   7.1173   7.1366   7.1446   7.1558   7.1600   7.1636   7.1743
     7.1805   7.1943   7.1992   7.2028   7.2194   7.2284   7.2561   7.2587
    11.2912  11.2950

          k =-0.1667-0.1667 0.1667 ( 21266 PWs)   bands (ev):

    -3.0510  -1.5833  -1.5542  -1.5143  -0.1214  -0.0976  -0.0784  -0.0536
    -0.0228  -0.0119   1.3314   1.3816   1.3911   1.4044   1.4241   1.4419
     1.4746   2.8130   2.8354   2.8482   2.8659   2.8836   2.9197   4.2165
     4.2246   4.2303   4.3148   4.3221   4.3282   5.5668   5.6158   5.6239
     5.6418   5.6669   5.6911   5.7488   7.0001   7.0118   7.0276   7.0370
     7.0543   7.0611   7.0794   7.0968   7.1244   7.3871   7.3951   7.4030
     8.4282   8.4453   8.4623   8.4735   8.4838   8.5079   8.7631   8.7822
     8.8013   8.8192

          k =-0.1667 0.1667-0.1667 ( 21266 PWs)   bands (ev):

    -3.0510  -1.5912  -1.5509  -1.5089  -0.1270  -0.1036  -0.0719  -0.0496
    -0.0304  -0.0035   1.3466   1.3608   1.3843   1.4026   1.4279   1.4510
     1.4759   2.8142   2.8304   2.8431   2.8725   2.8898   2.9158   4.2107
     4.2226   4.2348   4.3094   4.3236   4.3364   5.5842   5.5933   5.6141
     5.6347   5.6739   5.7022   5.7514   7.0034   7.0073   7.0207   7.0328
     7.0544   7.0724   7.0847   7.0967   7.1214   7.3803   7.3954   7.4073
     8.4258   8.4385   8.4490   8.4861   8.4935   8.5089   8.7629   8.7791
     8.7959   8.8212

          k = 0.1667-0.1667-0.1667 ( 21266 PWs)   bands (ev):

    -3.0510  -1.5860  -1.5603  -1.5044  -0.1287  -0.0977  -0.0751  -0.0681
    -0.0454   0.0304   1.3484   1.3582   1.3754   1.4075   1.4221   1.4384
     1.4982   2.8006   2.8314   2.8414   2.8670   2.8860   2.9389   4.2088
     4.2235   4.2363   4.3082   4.3228   4.3368   5.5802   5.5977   5.6188
     5.6412   5.6641   5.7045   5.7499   6.9856   6.9984   7.0199   7.0312
     7.0497   7.0690   7.0937   7.1074   7.1330   7.3826   7.3954   7.4125
     8.4153   8.4439   8.4530   8.4814   8.4887   8.5104   8.7692   8.7773
     8.7900   8.8200

          k =-0.1667 0.1667 0.5000 ( 21228 PWs)   bands (ev):

    -2.5691  -2.5295  -1.0899  -1.0592  -1.0506  -1.0127   0.3705   0.3914
     0.4174   0.4404   0.4608   0.4845   1.8462   1.8746   1.8860   1.8952
     1.9146   1.9356   3.3033   3.3132   3.3294   3.3437   3.3619   3.3708
     4.6573   4.6826   4.6997   4.7186   4.7389   4.7514   4.7578   4.7724
     4.8146   4.8339   6.0893   6.1236   6.1282   6.1681   6.1947   6.2146
     6.2208   6.2378   7.4954   7.5148   7.5369   7.5602   7.6185   7.6397
     7.8148   7.8400   7.8528   7.8800   8.9443   8.9595   8.9725   8.9848
     9.2966   9.3137

          k =-0.5000-0.1667 0.1667 ( 21228 PWs)   bands (ev):

    -2.5711  -2.5272  -1.1006  -1.0553  -1.0433  -1.0142   0.3756   0.3999
     0.4179   0.4402   0.4562   0.4757   1.8529   1.8686   1.8799   1.8980
     1.9220   1.9317   3.2995   3.3145   3.3325   3.3459   3.3556   3.3715
     4.6680   4.6711   4.7025   4.7205   4.7365   4.7566   4.7707   4.7888
     4.7944   4.8199   6.0794   6.1245   6.1402   6.1700   6.1959   6.2109
     6.2147   6.2418   7.4892   7.5176   7.5445   7.5593   7.6195   7.6394
     7.8201   7.8271   7.8537   7.8812   8.9421   8.9614   8.9643   8.9960
     9.2897   9.3157

          k = 0.5000-0.1667-0.1667 ( 21228 PWs)   bands (ev):

    -2.5711  -2.5272  -1.1054  -1.0551  -1.0438  -1.0078   0.3537   0.3968
     0.4139   0.4430   0.4532   0.5060   1.8560   1.8621   1.8801   1.8952
     1.9236   1.9335   3.2913   3.3064   3.3252   3.3461   3.3646   3.3881
     4.6570   4.6722   4.6984   4.7135   4.7278   4.7468   4.7677   4.7912
     4.8152   4.8414   6.0715   6.1248   6.1375   6.1680   6.1953   6.2126
     6.2247   6.2396   7.4908   7.5120   7.5280   7.5688   7.6210   7.6384
     7.8117   7.8396   7.8604   7.8814   8.9457   8.9594   8.9743   8.9867
     9.2911   9.3128

          k =-0.1667-0.5000 0.1667 ( 21228 PWs)   bands (ev):

    -2.5551  -2.5437  -1.0866  -1.0796  -1.0364  -1.0107   0.3801   0.3918
     0.4198   0.4250   0.4576   0.4950   1.8600   1.8746   1.8872   1.8938
     1.9070   1.9244   3.2975   3.3062   3.3333   3.3459   3.3621   3.3753
     4.6802   4.6881   4.6908   4.6997   4.7328   4.7437   4.7704   4.7733
     4.8213   4.8339   6.0929   6.1003   6.1448   6.1724   6.2095   6.2132
     6.2168   6.2246   7.4992   7.5210   7.5382   7.5448   7.6254   7.6328
     7.8375   7.8413   7.8518   7.8586   8.9608   8.9625   8.9691   8.9719
     9.2978   9.3203

          k =-0.1667 0.5000-0.1667 ( 21228 PWs)   bands (ev):

    -2.5550  -2.5437  -1.0916  -1.0827  -1.0271  -1.0116   0.3812   0.3963
     0.4211   0.4316   0.4553   0.4819   1.8564   1.8644   1.8875   1.9077
     1.9133   1.9207   3.2921   3.3016   3.3306   3.3434   3.3726   3.3797
     4.6751   4.6844   4.6889   4.7082   4.7294   4.7376   4.7829   4.7977
     4.8039   4.8227   6.0889   6.1006   6.1506   6.1681   6.2070   6.2107
     6.2165   6.2356   7.5058   7.5146   7.5371   7.5531   7.6245   7.6310
     7.8382   7.8402   7.8419   7.8635   8.9550   8.9584   8.9671   8.9816
     9.3045   9.3167

          k =-0.5000 0.1667 0.5000 ( 21296 PWs)   bands (ev):

    -2.1080  -2.0638  -2.0277  -1.9934  -0.6184  -0.5730  -0.5378  -0.5019
     0.8592   0.9010   0.9383   0.9726   2.3037   2.3147   2.3372   2.3742
     2.3897   2.3953   2.4159   2.4472   3.7418   3.7509   3.7750   3.8131
     3.8301   3.8326   3.8540   3.8849   5.1002   5.1456   5.1837   5.2001
     5.2140   5.2215   5.2349   5.2720   5.2874   5.2966   5.3139   5.3465
     6.6300   6.6491   6.6709   6.6868   8.0558   8.0777   8.0966   8.1154
     8.3444   8.3849   8.4125   8.4475   9.3020   9.3140   9.3378   9.3816
     9.3957   9.4052

          k =-0.5000 0.5000 0.1667 ( 21296 PWs)   bands (ev):

    -2.0838  -2.0642  -2.0274  -2.0211  -0.5911  -0.5719  -0.5334  -0.5300
     0.8819   0.9009   0.9403   0.9454   2.3123   2.3324   2.3412   2.3656
     2.3778   2.4032   2.4167   2.4259   3.7499   3.7721   3.7801   3.8044
     3.8154   3.8407   3.8582   3.8651   5.1254   5.1470   5.1842   5.1877
     5.2155   5.2295   5.2414   5.2643   5.2768   5.3019   5.3132   5.3256
     6.6425   6.6531   6.6712   6.6746   8.0671   8.0783   8.0988   8.1014
     8.3657   8.3834   8.4198   8.4224   9.3080   9.3321   9.3423   9.3692
     9.3841   9.4160

     the Fermi energy is     7.8047 ev

!    total energy              =   -1264.05865233 Ry
     Harris-Foulkes estimate   =   -1264.05865241 Ry
     estimated scf accuracy    <       0.00000008 Ry

     total all-electron energy =    -15540.627629 Ry

     The total energy is the sum of the following terms:

     one-electron contribution =     101.11914203 Ry
     hartree contribution      =       0.23536302 Ry
     xc contribution           =     -82.91016646 Ry
     ewald contribution        =    -172.82443339 Ry
     one-center paw contrib.   =   -1109.68176293 Ry
     smearing contrib. (-TS)   =       0.00320540 Ry

     convergence has been achieved in  13 iterations

     Forces acting on atoms (cartesian axes, Ry/au):

     atom    1 type  1   force =    -0.00009856   -0.00005691    0.00028480
     atom    2 type  1   force =    -0.00155291    0.00322083    0.00117696
     atom    3 type  1   force =     0.00364063   -0.00022300   -0.00863660
     atom    4 type  1   force =    -0.00013886   -0.00254860   -0.00536093
     atom    5 type  1   force =    -0.00730868   -0.00619216    0.00518510
     atom    6 type  1   force =    -0.00221215    0.00730782   -0.00014576
     atom    7 type  1   force =    -0.00210484   -0.00822530    0.00533201
     atom    8 type  1   force =     0.00058603   -0.00121240   -0.00409392
     atom    9 type  1   force =     0.00015546   -0.00125436    0.00209859
     atom   10 type  1   force =    -0.00246304   -0.00099711   -0.00964126
     atom   11 type  1   force =    -0.00413523   -0.00425143   -0.00655408
     atom   12 type  1   force =    -0.00141194    0.00061559   -0.00114783
     atom   13 type  1   force =    -0.00269712   -0.00538181   -0.00066865
     atom   14 type  1   force =    -0.00035393    0.00248213    0.00678612
     atom   15 type  1   force =    -0.00880849    0.00441565    0.00803715
     atom   16 type  1   force =     0.00930700    0.00805689    0.00213825
     atom   17 type  1   force =    -0.00696805    0.00091824    0.00122596
     atom   18 type  1   force =     0.00299164   -0.00095768    0.00682472
     atom   19 type  1   force =     0.00802021    0.00348220   -0.00127335
     atom   20 type  1   force =     0.00119181    0.00320929    0.00102241
     atom   21 type  1   force =     0.00313809   -0.00882082    0.00172028
     atom   22 type  1   force =    -0.00190498    0.00888145    0.00204667
     atom   23 type  1   force =     0.00188073   -0.00150224   -0.00321272
     atom   24 type  1   force =     0.00200754    0.00209238   -0.00132080
     atom   25 type  1   force =     0.00139583   -0.00279247    0.00540302
     atom   26 type  1   force =     0.00508021   -0.00368812   -0.00401221
     atom   27 type  1   force =    -0.00265211    0.00054173    0.00168350
     atom   28 type  1   force =    -0.00141419    0.00383391   -0.00116443
     atom   29 type  1   force =     0.01353399   -0.00537756   -0.00181437
     atom   30 type  1   force =    -0.00408469    0.00065974    0.00387877
     atom   31 type  1   force =    -0.00141056   -0.00094299   -0.00542015
     atom   32 type  1   force =    -0.00120886    0.00470711   -0.00037725

     Total force =     0.043082     Total SCF correction =     0.000306


     Computing stress (Cartesian axis) and pressure

          total   stress  (Ry/bohr**3)                   (kbar)     P=   -0.62
  -0.00000394  -0.00000035  -0.00000036         -0.58     -0.05     -0.05
  -0.00000035  -0.00000407   0.00000036         -0.05     -0.60      0.05
  -0.00000036   0.00000036  -0.00000471         -0.05      0.05     -0.69


     Writing output data file mchOsKZIgoSmioml.save/

     init_run     :     28.05s CPU     28.26s WALL (       1 calls)
     electrons    :    481.55s CPU    488.31s WALL (       1 calls)
     forces       :     11.97s CPU     12.02s WALL (       1 calls)
     stress       :     14.95s CPU     14.96s WALL (       1 calls)

     Called by init_run:
     wfcinit      :     27.36s CPU     27.55s WALL (       1 calls)
     potinit      :      0.34s CPU      0.35s WALL (       1 calls)
     hinit0       :      0.15s CPU      0.15s WALL (       1 calls)

     Called by electrons:
     c_bands      :    426.57s CPU    432.49s WALL (      14 calls)
     sum_band     :     48.98s CPU     49.74s WALL (      14 calls)
     v_of_rho     :      0.69s CPU      0.71s WALL (      14 calls)
     newd         :      1.97s CPU      2.02s WALL (      14 calls)
     PAW_pot      :      3.58s CPU      3.58s WALL (      14 calls)
     mix_rho      :      0.19s CPU      0.20s WALL (      14 calls)

     Called by c_bands:
     init_us_2    :      2.77s CPU      2.84s WALL (     434 calls)
     cegterg      :    421.55s CPU    427.09s WALL (     196 calls)

     Called by sum_band:
     sum_band:bec :      0.04s CPU      0.04s WALL (     196 calls)
     addusdens    :      1.84s CPU      2.07s WALL (      14 calls)

     Called by *egterg:
     h_psi        :    245.73s CPU    249.32s WALL (     708 calls)
     s_psi        :     97.83s CPU     98.32s WALL (     708 calls)
     g_psi        :      0.34s CPU      0.34s WALL (     498 calls)
     cdiaghg      :      5.91s CPU      5.92s WALL (     680 calls)

     Called by h_psi:
     h_psi:pot    :    245.11s CPU    248.23s WALL (     708 calls)
     h_psi:calbec :    100.65s CPU    100.95s WALL (     708 calls)
     vloc_psi     :     44.67s CPU     47.37s WALL (     708 calls)
     add_vuspsi   :     99.77s CPU     99.90s WALL (     708 calls)

     General routines
     calbec       :    151.21s CPU    151.63s WALL (     974 calls)
     fft          :      0.36s CPU      0.37s WALL (     180 calls)
     ffts         :      0.02s CPU      0.02s WALL (      14 calls)
     fftw         :     48.50s CPU     51.32s WALL (   73308 calls)

     Parallel routines
     fft_scatt_xy :      6.41s CPU      6.81s WALL (   73502 calls)
     fft_scatt_yz :     14.26s CPU     15.11s WALL (   73502 calls)

     PWSCF        :   8m56.96s CPU   9m 4.20s WALL


   This run was terminated on:   5: 5:46  19Jul2021            

=------------------------------------------------------------------------------=
   JOB DONE.
=------------------------------------------------------------------------------=
