
     Program PWSCF v.6.4.1 starts on 19Jul2021 at 10:20:32 

     This program is part of the open-source Quantum ESPRESSO suite
     for quantum simulation of materials; please cite
         "P. Giannozzi et al., J. Phys.:Condens. Matter 21 395502 (2009);
         "P. Giannozzi et al., J. Phys.:Condens. Matter 29 465901 (2017);
          URL http://www.quantum-espresso.org", 
     in publications or presentations arising from this work. More details at
     http://www.quantum-espresso.org/quote

     Parallel version (MPI), running on     4 processors

     MPI processes distributed on     1 nodes
     R & G space division:  proc/nbgrp/npool/nimage =       4
     Reading input from /cloud/Code/python/qeforfit/examples/al/01/wd/configs/21/config_0005.in
Warning: card &IONS ignored
Warning: card ION_DYNAMICS = 'BFGS', ignored
Warning: card / ignored
Warning: card &CELL ignored
Warning: card CELL_DYNAMICS = 'BFGS', ignored
Warning: card CELL_FACTOR = 2.0, ignored
Warning: card PRESS = 0.0, ignored
Warning: card / ignored

     Current dimensions of program PWSCF are:
     Max number of different atomic species (ntypx) = 10
     Max number of k-points (npk) =  40000
     Max angular momentum in pseudopotentials (lmaxx) =  3
               file Al.pbe-nl-kjpaw_psl.1.0.0.UPF: wavefunction(s)  3S 3P renormalized

     Subspace diagonalization in iterative solution of the eigenvalue problem:
     a serial algorithm will be used


     Parallelization info
     --------------------
     sticks:   dense  smooth     PW     G-vecs:    dense   smooth      PW
     Min         929     929    258                42677    42677    6208
     Max         931     931    259                42678    42678    6211
     Sum        3721    3721   1033               170709   170709   24837



     bravais-lattice index     =            0
     lattice parameter (alat)  =      15.2891  a.u.
     unit-cell volume          =    3573.8999 (a.u.)^3
     number of atoms/cell      =           32
     number of atomic types    =            1
     number of electrons       =        96.00
     number of Kohn-Sham states=           58
     kinetic-energy cutoff     =      50.0000  Ry
     charge density cutoff     =     200.0000  Ry
     convergence threshold     =      1.0E-06
     mixing beta               =       0.1000
     number of iterations used =           10  TF        mixing
     Exchange-correlation      = SLA PW PBX PBC ( 1  4  3  4 0 0)

     celldm(1)=  15.289060  celldm(2)=   0.000000  celldm(3)=   0.000000
     celldm(4)=   0.000000  celldm(5)=   0.000000  celldm(6)=   0.000000

     crystal axes: (cart. coord. in units of alat)
               a(1) = (   1.000000   0.000000   0.000000 )  
               a(2) = (   0.000000   1.000000   0.000000 )  
               a(3) = (   0.000000   0.000000   1.000000 )  

     reciprocal axes: (cart. coord. in units 2 pi/alat)
               b(1) = (  1.000000  0.000000  0.000000 )  
               b(2) = (  0.000000  1.000000  0.000000 )  
               b(3) = (  0.000000  0.000000  1.000000 )  


     PseudoPot. # 1 for Al read from file:
     /opt/pp/Al.pbe-nl-kjpaw_psl.1.0.0.UPF
     MD5 check sum: 1b67f78b73fe58c7924490f171ce8a1e
     Pseudo is Projector augmented-wave + core cor, Zval =  3.0
     Generated using "atomic" code by A. Dal Corso v.6.3
     Shape of augmentation charge: PSQ
     Using radial grid of 1135 points,  4 beta functions with: 
                l(1) =   0
                l(2) =   0
                l(3) =   1
                l(4) =   1
     Q(r) pseudized with 0 coefficients 


     atomic species   valence    mass     pseudopotential
        Al             3.00    26.98200     Al( 1.00)

     No symmetry found



   Cartesian axes

     site n.     atom                  positions (alat units)
         1           Al  tau(   1) = (  -0.0100708  -0.0088909  -0.0072541  )
         2           Al  tau(   2) = (   0.2430693   0.2355299  -0.0071902  )
         3           Al  tau(   3) = (   0.2382459  -0.0083041   0.2491072  )
         4           Al  tau(   4) = (  -0.0097163   0.2469598   0.2459804  )
         5           Al  tau(   5) = (  -0.0020027  -0.0021058   0.4875146  )
         6           Al  tau(   6) = (   0.2441831   0.2361609   0.4909434  )
         7           Al  tau(   7) = (   0.2416202  -0.0048532   0.7377116  )
         8           Al  tau(   8) = (  -0.0076210   0.2440212   0.7467194  )
         9           Al  tau(   9) = (  -0.0025158   0.4938578  -0.0095886  )
        10           Al  tau(  10) = (   0.2447474   0.7457713   0.0021801  )
        11           Al  tau(  11) = (   0.2461315   0.4938873   0.2478643  )
        12           Al  tau(  12) = (  -0.0080847   0.7421169   0.2415517  )
        13           Al  tau(  13) = (  -0.0060762   0.4952106   0.4936122  )
        14           Al  tau(  14) = (   0.2398373   0.7426119   0.4872253  )
        15           Al  tau(  15) = (   0.2502560   0.4849522   0.7323416  )
        16           Al  tau(  16) = (  -0.0183302   0.7326072   0.7406515  )
        17           Al  tau(  17) = (   0.4965397  -0.0119650  -0.0102400  )
        18           Al  tau(  18) = (   0.7383916   0.2434741  -0.0156776  )
        19           Al  tau(  19) = (   0.7306460  -0.0118388   0.2430001  )
        20           Al  tau(  20) = (   0.4901481   0.2397626   0.2361366  )
        21           Al  tau(  21) = (   0.4886372  -0.0009646   0.4900763  )
        22           Al  tau(  22) = (   0.7427550   0.2323364   0.4895085  )
        23           Al  tau(  23) = (   0.7418427  -0.0110769   0.7415608  )
        24           Al  tau(  24) = (   0.4911616   0.2376660   0.7406987  )
        25           Al  tau(  25) = (   0.4867204   0.4940762  -0.0152884  )
        26           Al  tau(  26) = (   0.7344757   0.7435788  -0.0015041  )
        27           Al  tau(  27) = (   0.7436594   0.4852997   0.2393379  )
        28           Al  tau(  28) = (   0.4932976   0.7349925   0.2466954  )
        29           Al  tau(  29) = (   0.4817848   0.4937149   0.4919732  )
        30           Al  tau(  30) = (   0.7454793   0.7404859   0.4867782  )
        31           Al  tau(  31) = (   0.7393651   0.4911077   0.7447403  )
        32           Al  tau(  32) = (   0.4912402   0.7394067   0.7385417  )

     number of k points=    14  Marzari-Vanderbilt smearing, width (Ry)=  0.0200
                       cart. coord. in units 2pi/alat
        k(    1) = (   0.1666667   0.1666667   0.1666667), wk =   0.1481481
        k(    2) = (   0.1666667   0.1666667  -0.5000000), wk =   0.1481481
        k(    3) = (   0.1666667  -0.5000000  -0.5000000), wk =   0.1481481
        k(    4) = (  -0.5000000  -0.5000000  -0.5000000), wk =   0.0740741
        k(    5) = (  -0.1666667  -0.1666667   0.1666667), wk =   0.1481481
        k(    6) = (  -0.1666667   0.1666667  -0.1666667), wk =   0.1481481
        k(    7) = (   0.1666667  -0.1666667  -0.1666667), wk =   0.1481481
        k(    8) = (  -0.1666667   0.1666667   0.5000000), wk =   0.1481481
        k(    9) = (  -0.5000000  -0.1666667   0.1666667), wk =   0.1481481
        k(   10) = (   0.5000000  -0.1666667  -0.1666667), wk =   0.1481481
        k(   11) = (  -0.1666667  -0.5000000   0.1666667), wk =   0.1481481
        k(   12) = (  -0.1666667   0.5000000  -0.1666667), wk =   0.1481481
        k(   13) = (  -0.5000000   0.1666667   0.5000000), wk =   0.1481481
        k(   14) = (  -0.5000000   0.5000000   0.1666667), wk =   0.1481481

     Dense  grid:   170709 G-vectors     FFT dimensions: (  72,  72,  72)

     Estimated max dynamical RAM per process >     208.76 MB

     Estimated total dynamical RAM >     835.04 MB

     Initial potential from superposition of free atoms

     starting charge   95.92671, renormalised to   96.00000
     Starting wfcs are  128 randomized atomic wfcs
     Checking if some PAW data can be deallocated... 

     total cpu time spent up to now is       28.9 secs

     Self-consistent Calculation

     iteration #  1     ecut=    50.00 Ry     beta= 0.10
     Davidson diagonalization with overlap
     ethr =  1.00E-02,  avg # of iterations =  3.0

     Threshold (ethr) on eigenvalues was too large:
     Diagonalizing with lowered threshold

     Davidson diagonalization with overlap
     ethr =  2.15E-04,  avg # of iterations =  3.6

     total cpu time spent up to now is      111.9 secs

     total energy              =   -1264.09139943 Ry
     Harris-Foulkes estimate   =   -1264.09858610 Ry
     estimated scf accuracy    <       0.20711025 Ry

     iteration #  2     ecut=    50.00 Ry     beta= 0.10
     Davidson diagonalization with overlap
     ethr =  2.16E-04,  avg # of iterations =  1.0

     total cpu time spent up to now is      138.7 secs

     total energy              =   -1264.03405157 Ry
     Harris-Foulkes estimate   =   -1264.09235951 Ry
     estimated scf accuracy    <       0.18025891 Ry

     iteration #  3     ecut=    50.00 Ry     beta= 0.10
     Davidson diagonalization with overlap
     ethr =  1.88E-04,  avg # of iterations =  1.0

     total cpu time spent up to now is      165.4 secs

     total energy              =   -1264.04180833 Ry
     Harris-Foulkes estimate   =   -1264.04185857 Ry
     estimated scf accuracy    <       0.00103192 Ry

     iteration #  4     ecut=    50.00 Ry     beta= 0.10
     Davidson diagonalization with overlap
     c_bands:  2 eigenvalues not converged
     c_bands:  1 eigenvalues not converged
     ethr =  1.07E-06,  avg # of iterations =  7.5

     total cpu time spent up to now is      236.2 secs

     total energy              =   -1264.04432363 Ry
     Harris-Foulkes estimate   =   -1264.04430908 Ry
     estimated scf accuracy    <       0.00393572 Ry

     iteration #  5     ecut=    50.00 Ry     beta= 0.10
     Davidson diagonalization with overlap
     c_bands:  1 eigenvalues not converged
     ethr =  1.07E-06,  avg # of iterations =  2.4

     total cpu time spent up to now is      263.0 secs

     total energy              =   -1264.04468545 Ry
     Harris-Foulkes estimate   =   -1264.04432550 Ry
     estimated scf accuracy    <       0.00400331 Ry

     iteration #  6     ecut=    50.00 Ry     beta= 0.10
     Davidson diagonalization with overlap
     c_bands:  1 eigenvalues not converged
     ethr =  1.07E-06,  avg # of iterations =  5.1

     total cpu time spent up to now is      291.3 secs

     total energy              =   -1264.04163077 Ry
     Harris-Foulkes estimate   =   -1264.04474933 Ry
     estimated scf accuracy    <       0.00694192 Ry

     iteration #  7     ecut=    50.00 Ry     beta= 0.10
     Davidson diagonalization with overlap
     ethr =  1.07E-06,  avg # of iterations =  6.4

     total cpu time spent up to now is      350.4 secs

     total energy              =   -1264.04233880 Ry
     Harris-Foulkes estimate   =   -1264.04441808 Ry
     estimated scf accuracy    <       0.00575825 Ry

     iteration #  8     ecut=    50.00 Ry     beta= 0.10
     Davidson diagonalization with overlap
     ethr =  1.07E-06,  avg # of iterations =  4.4

     total cpu time spent up to now is      400.7 secs

     total energy              =   -1264.04331589 Ry
     Harris-Foulkes estimate   =   -1264.04336802 Ry
     estimated scf accuracy    <       0.00027891 Ry

     iteration #  9     ecut=    50.00 Ry     beta= 0.10
     Davidson diagonalization with overlap
     ethr =  2.91E-07,  avg # of iterations =  2.7

     total cpu time spent up to now is      432.0 secs

     total energy              =   -1264.04337607 Ry
     Harris-Foulkes estimate   =   -1264.04336464 Ry
     estimated scf accuracy    <       0.00001561 Ry

     iteration # 10     ecut=    50.00 Ry     beta= 0.10
     Davidson diagonalization with overlap
     ethr =  1.63E-08,  avg # of iterations =  4.6

     total cpu time spent up to now is      487.8 secs

     total energy              =   -1264.04331869 Ry
     Harris-Foulkes estimate   =   -1264.04341782 Ry
     estimated scf accuracy    <       0.00037616 Ry

     iteration # 11     ecut=    50.00 Ry     beta= 0.10
     Davidson diagonalization with overlap
     ethr =  1.63E-08,  avg # of iterations =  4.7

     total cpu time spent up to now is      541.9 secs

     End of self-consistent calculation

          k = 0.1667 0.1667 0.1667 ( 21266 PWs)   bands (ev):

    -3.0681  -1.6421  -1.5752  -1.4920  -0.1924  -0.1634  -0.1071  -0.0684
    -0.0362   0.0596   1.2652   1.3057   1.3644   1.4012   1.4232   1.4453
     1.5030   2.7251   2.7950   2.8285   2.8591   2.8868   2.9505   4.1731
     4.1908   4.2141   4.2842   4.3082   4.3248   5.5181   5.5270   5.6108
     5.6280   5.6681   5.6924   5.7337   6.9154   6.9362   6.9555   7.0094
     7.0293   7.0534   7.0740   7.1009   7.1578   7.3511   7.3613   7.3914
     8.3638   8.3736   8.4215   8.4531   8.4879   8.5082   8.7091   8.7260
     8.7551   8.8009

          k = 0.1667 0.1667-0.5000 ( 21312 PWs)   bands (ev):

    -2.6033  -2.5325  -1.1228  -1.1023  -1.0533  -1.0147   0.2969   0.3560
     0.4018   0.4300   0.4706   0.4852   1.8205   1.8302   1.8598   1.8756
     1.9166   1.9323   3.2545   3.2825   3.3006   3.3150   3.3509   3.3846
     4.6119   4.6245   4.6579   4.6856   4.7137   4.7434   4.7478   4.7823
     4.7928   4.8258   6.0514   6.0690   6.0954   6.1518   6.1785   6.1912
     6.2063   6.2341   7.4442   7.4661   7.5111   7.5554   7.5854   7.6201
     7.7729   7.8026   7.8424   7.8670   8.9051   8.9120   8.9401   8.9661
     9.2506   9.2650

          k = 0.1667-0.5000-0.5000 ( 21356 PWs)   bands (ev):

    -2.1330  -2.1067  -2.0334  -1.9991  -0.6428  -0.6111  -0.5432  -0.5057
     0.8309   0.8628   0.9287   0.9660   2.2415   2.2771   2.2943   2.3227
     2.3529   2.4119   2.4340   2.4603   3.6769   3.7184   3.7394   3.7656
     3.7881   3.8517   3.8759   3.8940   5.0686   5.1036   5.1327   5.1651
     5.1735   5.1879   5.2123   5.2339   5.2558   5.3097   5.3350   5.3539
     6.5973   6.6145   6.6504   6.6707   8.0216   8.0422   8.0705   8.0920
     8.3018   8.3329   8.3887   8.4269   9.2156   9.2626   9.2914   9.3213
     9.3491   9.3993

          k =-0.5000-0.5000-0.5000 ( 21368 PWs)   bands (ev):

    -1.7024  -1.6785  -1.6052  -1.5856  -1.5516  -1.5036  -1.4897  -1.4193
     2.6184   2.6241   2.6638   2.6802   2.7156   2.7426   2.7477   2.7765
     2.7844   2.8007   2.8126   2.8245   2.8350   2.8490   2.8617   2.8691
     2.8893   2.9159   2.9352   2.9380   2.9624   3.0087   3.0454   3.1046
     6.9131   6.9401   6.9630   6.9794   7.0085   7.0288   7.0391   7.0465
     7.0492   7.0698   7.1037   7.1174   7.1368   7.1454   7.1518   7.1689
     7.1796   7.2056   7.2119   7.2194   7.2488   7.2624   7.3111   7.3155
    11.1943  11.2043

          k =-0.1667-0.1667 0.1667 ( 21266 PWs)   bands (ev):

    -3.0682  -1.6266  -1.5782  -1.5083  -0.1848  -0.1419  -0.1081  -0.0654
    -0.0128   0.0059   1.2557   1.3421   1.3601   1.3832   1.4158   1.4482
     1.5036   2.7582   2.7965   2.8192   2.8493   2.8806   2.9421   4.1857
     4.2019   4.2105   4.2879   4.3000   4.3087   5.4911   5.5764   5.5903
     5.6226   5.6630   5.7063   5.7258   6.9321   6.9505   6.9797   6.9964
     7.0272   7.0386   7.0679   7.0968   7.1456   7.3538   7.3682   7.3838
     8.3711   8.3990   8.4294   8.4473   8.4641   8.5075   8.7030   8.7351
     8.7640   8.7929

          k =-0.1667 0.1667-0.1667 ( 21266 PWs)   bands (ev):

    -3.0681  -1.6406  -1.5722  -1.4983  -0.1935  -0.1539  -0.0975  -0.0584
    -0.0268   0.0213   1.2813   1.3068   1.3470   1.3794   1.4227   1.4636
     1.5085   2.7580   2.7880   2.8100   2.8623   2.8913   2.9358   4.1754
     4.1958   4.2173   4.2791   4.3041   4.3263   5.5191   5.5369   5.5733
     5.6097   5.6715   5.7226   5.7386   6.9386   6.9435   6.9688   6.9918
     7.0228   7.0570   7.0771   7.1012   7.1381   7.3411   7.3701   7.3888
     8.3650   8.3872   8.4049   8.4724   8.4822   8.5088   8.6991   8.7330
     8.7589   8.7981

          k = 0.1667-0.1667-0.1667 ( 21266 PWs)   bands (ev):

    -3.0681  -1.6314  -1.5870  -1.4918  -0.1983  -0.1410  -0.1023  -0.0894
    -0.0507   0.0775   1.2853   1.3028   1.3327   1.3873   1.4132   1.4428
     1.5428   2.7362   2.7898   2.8071   2.8515   2.8843   2.9757   4.1710
     4.1987   4.2200   4.2774   4.3021   4.3252   5.5153   5.5452   5.5804
     5.6192   5.6599   5.7247   5.7350   6.9038   6.9276   6.9658   6.9888
     7.0201   7.0476   7.0928   7.1168   7.1571   7.3496   7.3697   7.4036
     8.3465   8.3964   8.4121   8.4575   8.4717   8.5096   8.7128   8.7285
     8.7473   8.7966

          k =-0.1667 0.1667 0.5000 ( 21312 PWs)   bands (ev):

    -2.6033  -2.5325  -1.1365  -1.0859  -1.0664  -1.0031   0.3064   0.3455
     0.3896   0.4294   0.4639   0.5051   1.7922   1.8416   1.8625   1.8794
     1.9101   1.9498   3.2558   3.2732   3.3019   3.3262   3.3577   3.3734
     4.5942   4.6425   4.6682   4.6924   4.7029   4.7250   4.7346   4.7547
     4.8200   4.8519   6.0316   6.0882   6.0989   6.1481   6.1693   6.1972
     6.2089   6.2329   7.4364   7.4739   7.5106   7.5498   7.5828   7.6201
     7.7695   7.8120   7.8325   7.8814   8.8955   8.9228   8.9446   8.9658
     9.2424   9.2715

          k =-0.5000-0.1667 0.1667 ( 21312 PWs)   bands (ev):

    -2.6066  -2.5281  -1.1562  -1.0771  -1.0558  -1.0058   0.3146   0.3589
     0.3906   0.4292   0.4586   0.4898   1.8024   1.8309   1.8518   1.8863
     1.9253   1.9411   3.2480   3.2758   3.3071   3.3284   3.3470   3.3738
     4.6165   4.6253   4.6761   4.6897   4.6993   4.7360   4.7583   4.7811
     4.7860   4.8229   6.0146   6.0920   6.1197   6.1490   6.1719   6.1900
     6.2008   6.2380   7.4288   7.4796   7.5251   7.5488   7.5871   7.6160
     7.7745   7.7885   7.8346   7.8815   8.8928   8.9269   8.9304   8.9868
     9.2310   9.2772

          k = 0.5000-0.1667-0.1667 ( 21312 PWs)   bands (ev):

    -2.6066  -2.5281  -1.1638  -1.0758  -1.0579  -0.9940   0.2776   0.3536
     0.3842   0.4362   0.4499   0.5433   1.8074   1.8206   1.8534   1.8768
     1.9258   1.9459   3.2349   3.2616   3.2935   3.3312   3.3625   3.4028
     4.5917   4.6170   4.6626   4.6733   4.6969   4.7344   4.7427   4.7896
     4.8234   4.8666   5.9991   6.0921   6.1135   6.1417   6.1734   6.1890
     6.2145   6.2419   7.4292   7.4674   7.4923   7.5575   7.5940   7.6157
     7.7603   7.8134   7.8511   7.8852   8.9008   8.9243   8.9479   8.9713
     9.2316   9.2697

          k =-0.1667-0.5000 0.1667 ( 21312 PWs)   bands (ev):

    -2.5779  -2.5584  -1.1316  -1.1185  -1.0439  -1.0008   0.3260   0.3464
     0.3945   0.4045   0.4571   0.5248   1.8164   1.8416   1.8619   1.8736
     1.8964   1.9296   3.2455   3.2614   3.3076   3.3287   3.3587   3.3807
     4.6302   4.6451   4.6549   4.6750   4.6953   4.7181   4.7480   4.7556
     4.8317   4.8536   6.0374   6.0511   6.1245   6.1655   6.1808   6.1911
     6.1981   6.2191   7.4456   7.4828   7.5103   7.5202   7.5961   7.6077
     7.8039   7.8145   7.8310   7.8497   8.9245   8.9292   8.9385   8.9458
     9.2446   9.2834

          k =-0.1667 0.5000-0.1667 ( 21312 PWs)   bands (ev):

    -2.5778  -2.5584  -1.1403  -1.1250  -1.0260  -1.0021   0.3268   0.3522
     0.3961   0.4135   0.4563   0.5022   1.8107   1.8237   1.8618   1.9012
     1.9089   1.9226   3.2357   3.2524   3.3022   3.3252   3.3759   3.3900
     4.6220   4.6400   4.6553   4.6787   4.6971   4.7039   4.7636   4.7899
     4.8082   4.8379   6.0318   6.0539   6.1325   6.1548   6.1798   6.1876
     6.2021   6.2356   7.4588   7.4726   7.5128   7.5373   7.5931   7.6012
     7.8056   7.8126   7.8142   7.8513   8.9134   8.9204   8.9366   8.9617
     9.2563   9.2782

          k =-0.5000 0.1667 0.5000 ( 21356 PWs)   bands (ev):

    -2.1717  -2.0916  -2.0300  -1.9701  -0.6864  -0.6029  -0.5440  -0.4796
     0.7955   0.8679   0.9325   0.9922   2.2318   2.2517   2.2906   2.3555
     2.3822   2.3917   2.4284   2.4831   3.6668   3.6810   3.7238   3.7920
     3.8218   3.8248   3.8618   3.9163   5.0267   5.1063   5.1246   5.1441
     5.1717   5.1958   5.2345   5.2535   5.2796   5.2965   5.3235   5.3806
     6.5849   6.6171   6.6555   6.6826   8.0003   8.0366   8.0714   8.1035
     8.2696   8.3412   8.3867   8.4510   9.2155   9.2359   9.2781   9.3470
     9.3671   9.3849

          k =-0.5000 0.5000 0.1667 ( 21356 PWs)   bands (ev):

    -2.1292  -2.0954  -2.0322  -2.0183  -0.6342  -0.6018  -0.5346  -0.5279
     0.8337   0.8649   0.9355   0.9461   2.2477   2.2817   2.2965   2.3396
     2.3622   2.4057   2.4286   2.4449   3.6811   3.7208   3.7345   3.7753
     3.7952   3.8392   3.8710   3.8821   5.0702   5.1007   5.1452   5.1676
     5.1797   5.1882   5.2021   5.2406   5.2618   5.3013   5.3227   5.3445
     6.6068   6.6262   6.6564   6.6643   8.0188   8.0387   8.0750   8.0800
     8.3074   8.3376   8.4026   8.4063   9.2266   9.2658   9.2845   9.3271
     9.3572   9.3908

     the Fermi energy is     7.7768 ev

!    total energy              =   -1264.04336239 Ry
     Harris-Foulkes estimate   =   -1264.04336235 Ry
     estimated scf accuracy    <       0.00000014 Ry

     total all-electron energy =    -15540.612339 Ry

     The total energy is the sum of the following terms:

     one-electron contribution =     100.78440758 Ry
     hartree contribution      =       0.30326950 Ry
     xc contribution           =     -82.88321124 Ry
     ewald contribution        =    -172.56815988 Ry
     one-center paw contrib.   =   -1109.68382478 Ry
     smearing contrib. (-TS)   =       0.00415642 Ry

     convergence has been achieved in  11 iterations

     Forces acting on atoms (cartesian axes, Ry/au):

     atom    1 type  1   force =    -0.00019972   -0.00015071    0.00040569
     atom    2 type  1   force =    -0.00272786    0.00528270    0.00186777
     atom    3 type  1   force =     0.00650975   -0.00024360   -0.01565999
     atom    4 type  1   force =     0.00063295   -0.00423409   -0.00909994
     atom    5 type  1   force =    -0.01332047   -0.01073438    0.00924621
     atom    6 type  1   force =    -0.00371752    0.01356385   -0.00040471
     atom    7 type  1   force =    -0.00336289   -0.01388567    0.00928727
     atom    8 type  1   force =     0.00115617   -0.00210066   -0.00711668
     atom    9 type  1   force =     0.00044757   -0.00221350    0.00387721
     atom   10 type  1   force =    -0.00392855   -0.00131021   -0.01550075
     atom   11 type  1   force =    -0.00776540   -0.00759825   -0.01184304
     atom   12 type  1   force =    -0.00245258    0.00103718   -0.00204666
     atom   13 type  1   force =    -0.00435903   -0.00933372   -0.00143008
     atom   14 type  1   force =    -0.00057889    0.00427340    0.01195490
     atom   15 type  1   force =    -0.01625605    0.00685421    0.01411431
     atom   16 type  1   force =     0.01537443    0.01420400    0.00376300
     atom   17 type  1   force =    -0.01226902    0.00216286    0.00161053
     atom   18 type  1   force =     0.00490080   -0.00183019    0.01176782
     atom   19 type  1   force =     0.01362196    0.00572450   -0.00193160
     atom   20 type  1   force =     0.00199952    0.00550532    0.00181209
     atom   21 type  1   force =     0.00553007   -0.01552191    0.00289792
     atom   22 type  1   force =    -0.00293323    0.01481400    0.00351824
     atom   23 type  1   force =     0.00327261   -0.00258231   -0.00541389
     atom   24 type  1   force =     0.00348463    0.00356843   -0.00217602
     atom   25 type  1   force =     0.00211313   -0.00477011    0.00943277
     atom   26 type  1   force =     0.00915512   -0.00674179   -0.00708615
     atom   27 type  1   force =    -0.00469766    0.00132743    0.00280078
     atom   28 type  1   force =    -0.00226303    0.00651018   -0.00199314
     atom   29 type  1   force =     0.02421057   -0.00909091   -0.00350306
     atom   30 type  1   force =    -0.00698094    0.00103611    0.00668549
     atom   31 type  1   force =    -0.00258506   -0.00170492   -0.00919844
     atom   32 type  1   force =    -0.00201138    0.00818279   -0.00063786

     Total force =     0.075035     Total SCF correction =     0.000236


     Computing stress (Cartesian axis) and pressure

          total   stress  (Ry/bohr**3)                   (kbar)     P=   -0.51
  -0.00000247  -0.00000097  -0.00000128         -0.36     -0.14     -0.19
  -0.00000097  -0.00000323   0.00000089         -0.14     -0.48      0.13
  -0.00000128   0.00000089  -0.00000464         -0.19      0.13     -0.68


     Writing output data file CVgWGJoyuiacBmnv.save/

     init_run     :     28.23s CPU     28.47s WALL (       1 calls)
     electrons    :    506.07s CPU    513.02s WALL (       1 calls)
     forces       :     11.88s CPU     11.92s WALL (       1 calls)
     stress       :     14.85s CPU     14.89s WALL (       1 calls)

     Called by init_run:
     wfcinit      :     27.61s CPU     27.82s WALL (       1 calls)
     potinit      :      0.31s CPU      0.32s WALL (       1 calls)
     hinit0       :      0.15s CPU      0.15s WALL (       1 calls)

     Called by electrons:
     c_bands      :    458.73s CPU    465.01s WALL (      12 calls)
     sum_band     :     42.31s CPU     42.89s WALL (      12 calls)
     v_of_rho     :      0.56s CPU      0.59s WALL (      12 calls)
     newd         :      1.69s CPU      1.75s WALL (      12 calls)
     PAW_pot      :      3.04s CPU      3.05s WALL (      12 calls)
     mix_rho      :      0.13s CPU      0.14s WALL (      12 calls)

     Called by c_bands:
     init_us_2    :      2.38s CPU      2.42s WALL (     378 calls)
     cegterg      :    454.14s CPU    460.08s WALL (     168 calls)

     Called by sum_band:
     sum_band:bec :      0.04s CPU      0.04s WALL (     168 calls)
     addusdens    :      1.64s CPU      1.80s WALL (      12 calls)

     Called by *egterg:
     h_psi        :    251.03s CPU    254.89s WALL (     831 calls)
     s_psi        :     99.53s CPU    100.02s WALL (     831 calls)
     g_psi        :      0.38s CPU      0.39s WALL (     649 calls)
     cdiaghg      :      9.73s CPU      9.75s WALL (     803 calls)

     Called by h_psi:
     h_psi:pot    :    250.42s CPU    253.82s WALL (     831 calls)
     h_psi:calbec :    103.13s CPU    103.41s WALL (     831 calls)
     vloc_psi     :     45.62s CPU     48.59s WALL (     831 calls)
     add_vuspsi   :    101.66s CPU    101.82s WALL (     831 calls)

     General routines
     calbec       :    148.38s CPU    148.76s WALL (    1069 calls)
     fft          :      0.24s CPU      0.27s WALL (     158 calls)
     ffts         :      0.02s CPU      0.02s WALL (      12 calls)
     fftw         :     48.42s CPU     51.41s WALL (   72614 calls)

     Parallel routines
     fft_scatt_xy :      5.94s CPU      6.32s WALL (   72784 calls)
     fft_scatt_yz :     14.77s CPU     15.73s WALL (   72784 calls)

     PWSCF        :   9m21.52s CPU   9m29.02s WALL


   This run was terminated on:  10:30: 1  19Jul2021            

=------------------------------------------------------------------------------=
   JOB DONE.
=------------------------------------------------------------------------------=
