
     Program PWSCF v.6.4.1 starts on 17Jul2021 at  1:45:44 

     This program is part of the open-source Quantum ESPRESSO suite
     for quantum simulation of materials; please cite
         "P. Giannozzi et al., J. Phys.:Condens. Matter 21 395502 (2009);
         "P. Giannozzi et al., J. Phys.:Condens. Matter 29 465901 (2017);
          URL http://www.quantum-espresso.org", 
     in publications or presentations arising from this work. More details at
     http://www.quantum-espresso.org/quote

     Parallel version (MPI), running on     4 processors

     MPI processes distributed on     1 nodes
     R & G space division:  proc/nbgrp/npool/nimage =       4
     Reading input from /cloud/Code/python/qeforfit/examples/al/01/wd/configs/8/config_0002.in
Warning: card &IONS ignored
Warning: card ION_DYNAMICS = 'BFGS', ignored
Warning: card / ignored
Warning: card &CELL ignored
Warning: card CELL_DYNAMICS = 'BFGS', ignored
Warning: card CELL_FACTOR = 2.0, ignored
Warning: card PRESS = 0.0, ignored
Warning: card / ignored

     Current dimensions of program PWSCF are:
     Max number of different atomic species (ntypx) = 10
     Max number of k-points (npk) =  40000
     Max angular momentum in pseudopotentials (lmaxx) =  3
               file Al.pbe-nl-kjpaw_psl.1.0.0.UPF: wavefunction(s)  3S 3P renormalized

     Subspace diagonalization in iterative solution of the eigenvalue problem:
     a serial algorithm will be used


     Parallelization info
     --------------------
     sticks:   dense  smooth     PW     G-vecs:    dense   smooth      PW
     Min         927     927    257                42586    42586    6143
     Max         929     929    259                42589    42589    6144
     Sum        3713    3713   1033               170349   170349   24573



     bravais-lattice index     =            0
     lattice parameter (alat)  =      15.2741  a.u.
     unit-cell volume          =    3563.4251 (a.u.)^3
     number of atoms/cell      =           32
     number of atomic types    =            1
     number of electrons       =        96.00
     number of Kohn-Sham states=           58
     kinetic-energy cutoff     =      50.0000  Ry
     charge density cutoff     =     200.0000  Ry
     convergence threshold     =      1.0E-06
     mixing beta               =       0.1000
     number of iterations used =           10  TF        mixing
     Exchange-correlation      = SLA PW PBX PBC ( 1  4  3  4 0 0)

     celldm(1)=  15.274109  celldm(2)=   0.000000  celldm(3)=   0.000000
     celldm(4)=   0.000000  celldm(5)=   0.000000  celldm(6)=   0.000000

     crystal axes: (cart. coord. in units of alat)
               a(1) = (   1.000000   0.000000   0.000000 )  
               a(2) = (   0.000000   1.000000   0.000000 )  
               a(3) = (   0.000000   0.000000   1.000000 )  

     reciprocal axes: (cart. coord. in units 2 pi/alat)
               b(1) = (  1.000000  0.000000  0.000000 )  
               b(2) = (  0.000000  1.000000  0.000000 )  
               b(3) = (  0.000000  0.000000  1.000000 )  


     PseudoPot. # 1 for Al read from file:
     /opt/pp/Al.pbe-nl-kjpaw_psl.1.0.0.UPF
     MD5 check sum: 1b67f78b73fe58c7924490f171ce8a1e
     Pseudo is Projector augmented-wave + core cor, Zval =  3.0
     Generated using "atomic" code by A. Dal Corso v.6.3
     Shape of augmentation charge: PSQ
     Using radial grid of 1135 points,  4 beta functions with: 
                l(1) =   0
                l(2) =   0
                l(3) =   1
                l(4) =   1
     Q(r) pseudized with 0 coefficients 


     atomic species   valence    mass     pseudopotential
        Al             3.00    26.98200     Al( 1.00)

     No symmetry found



   Cartesian axes

     site n.     atom                  positions (alat units)
         1           Al  tau(   1) = (  -0.0014401  -0.0012714  -0.0010373  )
         2           Al  tau(   2) = (   0.2490089   0.2479308  -0.0010282  )
         3           Al  tau(   3) = (   0.2483192  -0.0011875   0.2498723  )
         4           Al  tau(   4) = (  -0.0013894   0.2495653   0.2494252  )
         5           Al  tau(   5) = (  -0.0002864  -0.0003011   0.4982146  )
         6           Al  tau(   6) = (   0.2491682   0.2480210   0.4987049  )
         7           Al  tau(   7) = (   0.2488017  -0.0006940   0.7482428  )
         8           Al  tau(   8) = (  -0.0010898   0.2491450   0.7495309  )
         9           Al  tau(   9) = (  -0.0003597   0.4991217  -0.0013711  )
        10           Al  tau(  10) = (   0.2492489   0.7493953   0.0003117  )
        11           Al  tau(  11) = (   0.2494468   0.4991259   0.2496946  )
        12           Al  tau(  12) = (  -0.0011561   0.7488727   0.2487919  )
        13           Al  tau(  13) = (  -0.0008689   0.4993151   0.4990866  )
        14           Al  tau(  14) = (   0.2485468   0.7489435   0.4981733  )
        15           Al  tau(  15) = (   0.2500366   0.4978482   0.7474749  )
        16           Al  tau(  16) = (  -0.0026212   0.7475129   0.7486632  )
        17           Al  tau(  17) = (   0.4995052  -0.0017110  -0.0014643  )
        18           Al  tau(  18) = (   0.7483400   0.2490668  -0.0022418  )
        19           Al  tau(  19) = (   0.7472324  -0.0016929   0.2489990  )
        20           Al  tau(  20) = (   0.4985912   0.2485361   0.2480176  )
        21           Al  tau(  21) = (   0.4983752  -0.0001379   0.4985809  )
        22           Al  tau(  22) = (   0.7489640   0.2474742   0.4984997  )
        23           Al  tau(  23) = (   0.7488335  -0.0015840   0.7487932  )
        24           Al  tau(  24) = (   0.4987361   0.2482363   0.7486699  )
        25           Al  tau(  25) = (   0.4981011   0.4991529  -0.0021862  )
        26           Al  tau(  26) = (   0.7477801   0.7490818  -0.0002151  )
        27           Al  tau(  27) = (   0.7490933   0.4978979   0.2484754  )
        28           Al  tau(  28) = (   0.4990416   0.7478540   0.2495275  )
        29           Al  tau(  29) = (   0.4973953   0.4991013   0.4988522  )
        30           Al  tau(  30) = (   0.7493536   0.7486395   0.4981093  )
        31           Al  tau(  31) = (   0.7484792   0.4987284   0.7492479  )
        32           Al  tau(  32) = (   0.4987474   0.7484852   0.7483615  )

     number of k points=    14  Marzari-Vanderbilt smearing, width (Ry)=  0.0200
                       cart. coord. in units 2pi/alat
        k(    1) = (   0.1666667   0.1666667   0.1666667), wk =   0.1481481
        k(    2) = (   0.1666667   0.1666667  -0.5000000), wk =   0.1481481
        k(    3) = (   0.1666667  -0.5000000  -0.5000000), wk =   0.1481481
        k(    4) = (  -0.5000000  -0.5000000  -0.5000000), wk =   0.0740741
        k(    5) = (  -0.1666667  -0.1666667   0.1666667), wk =   0.1481481
        k(    6) = (  -0.1666667   0.1666667  -0.1666667), wk =   0.1481481
        k(    7) = (   0.1666667  -0.1666667  -0.1666667), wk =   0.1481481
        k(    8) = (  -0.1666667   0.1666667   0.5000000), wk =   0.1481481
        k(    9) = (  -0.5000000  -0.1666667   0.1666667), wk =   0.1481481
        k(   10) = (   0.5000000  -0.1666667  -0.1666667), wk =   0.1481481
        k(   11) = (  -0.1666667  -0.5000000   0.1666667), wk =   0.1481481
        k(   12) = (  -0.1666667   0.5000000  -0.1666667), wk =   0.1481481
        k(   13) = (  -0.5000000   0.1666667   0.5000000), wk =   0.1481481
        k(   14) = (  -0.5000000   0.5000000   0.1666667), wk =   0.1481481

     Dense  grid:   170349 G-vectors     FFT dimensions: (  72,  72,  72)

     Estimated max dynamical RAM per process >     208.25 MB

     Estimated total dynamical RAM >     833.00 MB

     Initial potential from superposition of free atoms

     starting charge   95.92671, renormalised to   96.00000
     Starting wfcs are  128 randomized atomic wfcs
     Checking if some PAW data can be deallocated... 

     total cpu time spent up to now is       28.0 secs

     Self-consistent Calculation

     iteration #  1     ecut=    50.00 Ry     beta= 0.10
     Davidson diagonalization with overlap
     ethr =  1.00E-02,  avg # of iterations =  3.0

     Threshold (ethr) on eigenvalues was too large:
     Diagonalizing with lowered threshold

     Davidson diagonalization with overlap
     ethr =  1.93E-04,  avg # of iterations =  3.6

     total cpu time spent up to now is      109.7 secs

     total energy              =   -1264.10914033 Ry
     Harris-Foulkes estimate   =   -1264.11530644 Ry
     estimated scf accuracy    <       0.18103655 Ry

     iteration #  2     ecut=    50.00 Ry     beta= 0.10
     Davidson diagonalization with overlap
     ethr =  1.89E-04,  avg # of iterations =  1.0

     total cpu time spent up to now is      135.7 secs

     total energy              =   -1264.06210616 Ry
     Harris-Foulkes estimate   =   -1264.10996411 Ry
     estimated scf accuracy    <       0.15726777 Ry

     iteration #  3     ecut=    50.00 Ry     beta= 0.10
     Davidson diagonalization with overlap
     ethr =  1.64E-04,  avg # of iterations =  1.0

     total cpu time spent up to now is      162.0 secs

     total energy              =   -1264.06516650 Ry
     Harris-Foulkes estimate   =   -1264.06525056 Ry
     estimated scf accuracy    <       0.00064184 Ry

     iteration #  4     ecut=    50.00 Ry     beta= 0.10
     Davidson diagonalization with overlap
     c_bands:  2 eigenvalues not converged
     ethr =  6.69E-07,  avg # of iterations =  5.9

     total cpu time spent up to now is      223.4 secs

     total energy              =   -1264.06588955 Ry
     Harris-Foulkes estimate   =   -1264.06597383 Ry
     estimated scf accuracy    <       0.00039431 Ry

     iteration #  5     ecut=    50.00 Ry     beta= 0.10
     Davidson diagonalization with overlap
     ethr =  4.11E-07,  avg # of iterations =  1.0

     total cpu time spent up to now is      249.5 secs

     total energy              =   -1264.06556045 Ry
     Harris-Foulkes estimate   =   -1264.06589231 Ry
     estimated scf accuracy    <       0.00032822 Ry

     iteration #  6     ecut=    50.00 Ry     beta= 0.10
     Davidson diagonalization with overlap
     ethr =  3.42E-07,  avg # of iterations =  2.0

     total cpu time spent up to now is      287.6 secs

     total energy              =   -1264.06565526 Ry
     Harris-Foulkes estimate   =   -1264.06565399 Ry
     estimated scf accuracy    <       0.00003180 Ry

     iteration #  7     ecut=    50.00 Ry     beta= 0.10
     Davidson diagonalization with overlap
     ethr =  3.31E-08,  avg # of iterations =  1.9

     total cpu time spent up to now is      314.2 secs

     total energy              =   -1264.06564648 Ry
     Harris-Foulkes estimate   =   -1264.06565657 Ry
     estimated scf accuracy    <       0.00001095 Ry

     iteration #  8     ecut=    50.00 Ry     beta= 0.10
     Davidson diagonalization with overlap
     ethr =  1.14E-08,  avg # of iterations =  3.4

     total cpu time spent up to now is      354.7 secs

     total energy              =   -1264.06564857 Ry
     Harris-Foulkes estimate   =   -1264.06564970 Ry
     estimated scf accuracy    <       0.00000327 Ry

     iteration #  9     ecut=    50.00 Ry     beta= 0.10
     Davidson diagonalization with overlap
     ethr =  3.41E-09,  avg # of iterations =  1.0

     total cpu time spent up to now is      381.4 secs

     total energy              =   -1264.06564830 Ry
     Harris-Foulkes estimate   =   -1264.06564865 Ry
     estimated scf accuracy    <       0.00000169 Ry

     iteration # 10     ecut=    50.00 Ry     beta= 0.10
     Davidson diagonalization with overlap
     ethr =  1.77E-09,  avg # of iterations =  1.6

     total cpu time spent up to now is      407.9 secs

     End of self-consistent calculation

          k = 0.1667 0.1667 0.1667 ( 21266 PWs)   bands (ev):

    -3.0460  -1.5553  -1.5455  -1.5334  -0.0742  -0.0709  -0.0627  -0.0574
    -0.0524  -0.0381   1.3939   1.3994   1.4076   1.4131   1.4164   1.4197
     1.4278   2.8488   2.8577   2.8623   2.8665   2.8712   2.8804   4.2258
     4.2286   4.2314   4.3226   4.3258   4.3287   5.6263   5.6276   5.6395
     5.6424   5.6479   5.6529   5.7526   7.0434   7.0447   7.0497   7.0579
     7.0607   7.0622   7.0668   7.0723   7.0842   7.3961   7.3990   7.4022
     8.4614   8.4635   8.4702   8.4757   8.4808   8.4829   8.8020   8.8041
     8.8109   8.8159

          k = 0.1667 0.1667-0.5000 ( 21228 PWs)   bands (ev):

    -2.5488  -2.5389  -1.0548  -1.0518  -1.0455  -1.0391   0.4172   0.4252
     0.4316   0.4355   0.4416   0.4439   1.8867   1.8908   1.8930   1.8956
     1.9029   1.9053   3.3327   3.3368   3.3391   3.3407   3.3466   3.3522
     4.6950   4.6968   4.7047   4.7077   4.7618   4.7675   4.7681   4.7728
     4.7968   4.8011   6.1275   6.1303   6.1364   6.1438   6.2142   6.2164
     6.2192   6.2231   7.5274   7.5298   7.5368   7.5434   7.6318   7.6371
     7.8428   7.8455   7.8522   7.8563   8.9676   8.9686   8.9733   8.9764
     9.3248   9.3277

          k = 0.1667-0.5000-0.5000 ( 21296 PWs)   bands (ev):

    -2.0529  -2.0485  -2.0390  -2.0332  -0.5620  -0.5575  -0.5481  -0.5422
     0.9129   0.9174   0.9269   0.9328   2.3602   2.3658   2.3687   2.3724
     2.3761   2.3849   2.3887   2.3915   3.7992   3.8051   3.8082   3.8120
     3.8151   3.8244   3.8282   3.8308   5.1584   5.1632   5.1732   5.1796
     5.2576   5.2629   5.2657   5.2695   5.2740   5.2822   5.2864   5.2889
     6.6579   6.6602   6.6651   6.6681   8.0885   8.0909   8.0956   8.0988
     8.3958   8.3999   8.4081   8.4135   9.3658   9.3728   9.3779   9.3812
     9.3858   9.3992

          k =-0.5000-0.5000-0.5000 ( 21368 PWs)   bands (ev):

    -1.5640  -1.5606  -1.5503  -1.5477  -1.5428  -1.5356  -1.5334  -1.5230
     2.8282   2.8293   2.8346   2.8370   2.8422   2.8460   2.8467   2.8506
     2.8517   2.8543   2.8556   2.8577   2.8593   2.8609   2.8632   2.8640
     2.8672   2.8708   2.8735   2.8743   2.8778   2.8840   2.8896   2.8980
     7.1201   7.1240   7.1270   7.1292   7.1339   7.1362   7.1380   7.1391
     7.1395   7.1425   7.1472   7.1492   7.1521   7.1530   7.1539   7.1567
     7.1583   7.1615   7.1630   7.1638   7.1679   7.1704   7.1773   7.1780
    11.3391  11.3427

          k =-0.1667-0.1667 0.1667 ( 21266 PWs)   bands (ev):

    -3.0460  -1.5532  -1.5456  -1.5355  -0.0735  -0.0678  -0.0630  -0.0568
    -0.0486  -0.0461   1.3921   1.4049   1.4070   1.4104   1.4156   1.4197
     1.4283   2.8526   2.8580   2.8611   2.8654   2.8702   2.8796   4.2270
     4.2288   4.2304   4.3237   4.3256   4.3274   5.6225   5.6347   5.6368
     5.6411   5.6479   5.6537   5.7525   7.0441   7.0487   7.0524   7.0562
     7.0577   7.0614   7.0665   7.0733   7.0816   7.3972   7.3991   7.4010
     8.4625   8.4671   8.4712   8.4742   8.4769   8.4827   8.8004   8.8071
     8.8115   8.8173

          k =-0.1667 0.1667-0.1667 ( 21266 PWs)   bands (ev):

    -3.0460  -1.5552  -1.5448  -1.5343  -0.0751  -0.0692  -0.0611  -0.0558
    -0.0505  -0.0440   1.3961   1.3994   1.4054   1.4100   1.4167   1.4222
     1.4281   2.8533   2.8567   2.8597   2.8667   2.8718   2.8787   4.2257
     4.2287   4.2317   4.3222   4.3257   4.3290   5.6270   5.6293   5.6343
     5.6395   5.6499   5.6565   5.7526   7.0447   7.0476   7.0508   7.0531
     7.0612   7.0637   7.0674   7.0719   7.0817   7.3957   7.3991   7.4023
     8.4621   8.4653   8.4682   8.4768   8.4792   8.4831   8.8009   8.8061
     8.8095   8.8165

          k = 0.1667-0.1667-0.1667 ( 21266 PWs)   bands (ev):

    -3.0460  -1.5539  -1.5474  -1.5330  -0.0753  -0.0680  -0.0623  -0.0604
    -0.0547  -0.0351   1.3965   1.3988   1.4031   1.4113   1.4150   1.4187
     1.4345   2.8495   2.8567   2.8597   2.8660   2.8706   2.8844   4.2253
     4.2287   4.2321   4.3219   4.3256   4.3293   5.6257   5.6302   5.6357
     5.6413   5.6469   5.6569   5.7526   7.0416   7.0467   7.0496   7.0529
     7.0575   7.0642   7.0705   7.0743   7.0844   7.3956   7.3991   7.4029
     8.4596   8.4667   8.4691   8.4766   8.4784   8.4838   8.8021   8.8039
     8.8084   8.8156

          k =-0.1667 0.1667 0.5000 ( 21228 PWs)   bands (ev):

    -2.5488  -2.5389  -1.0572  -1.0491  -1.0473  -1.0375   0.4183   0.4230
     0.4299   0.4357   0.4410   0.4469   1.8836   1.8901   1.8942   1.8969
     1.9022   1.9073   3.3326   3.3357   3.3391   3.3429   3.3474   3.3505
     4.6932   4.6987   4.7037   4.7088   4.7613   4.7657   4.7676   4.7728
     4.7978   4.8026   6.1248   6.1333   6.1349   6.1453   6.2123   6.2170
     6.2194   6.2238   7.5267   7.5311   7.5369   7.5427   7.6317   7.6371
     7.8409   7.8475   7.8511   7.8576   8.9662   8.9700   8.9733   8.9765
     9.3243   9.3301

          k =-0.5000-0.1667 0.1667 ( 21228 PWs)   bands (ev):

    -2.5493  -2.5384  -1.0597  -1.0484  -1.0452  -1.0379   0.4195   0.4257
     0.4300   0.4355   0.4395   0.4448   1.8853   1.8890   1.8929   1.8968
     1.9034   1.9070   3.3319   3.3357   3.3401   3.3434   3.3463   3.3505
     4.6950   4.6959   4.7041   4.7096   4.7606   4.7653   4.7702   4.7749
     4.7953   4.8014   6.1222   6.1338   6.1375   6.1450   6.2135   6.2164
     6.2176   6.2248   7.5247   7.5316   7.5386   7.5425   7.6316   7.6373
     7.8427   7.8446   7.8512   7.8583   8.9656   8.9702   8.9714   8.9790
     9.3222   9.3329

          k = 0.5000-0.1667-0.1667 ( 21228 PWs)   bands (ev):

    -2.5493  -2.5384  -1.0611  -1.0483  -1.0454  -1.0364   0.4140   0.4248
     0.4289   0.4360   0.4391   0.4523   1.8865   1.8873   1.8917   1.8974
     1.9048   1.9065   3.3295   3.3337   3.3386   3.3437   3.3480   3.3545
     4.6931   4.6975   4.7043   4.7089   4.7574   4.7627   4.7715   4.7759
     4.7974   4.8039   6.1207   6.1339   6.1370   6.1462   6.2123   6.2171
     6.2197   6.2237   7.5255   7.5307   7.5352   7.5455   7.6317   7.6372
     7.8406   7.8469   7.8522   7.8577   8.9662   8.9698   8.9738   8.9767
     9.3231   9.3300

          k =-0.1667-0.5000 0.1667 ( 21228 PWs)   bands (ev):

    -2.5453  -2.5424  -1.0562  -1.0545  -1.0436  -1.0368   0.4203   0.4232
     0.4304   0.4317   0.4404   0.4493   1.8862   1.8898   1.8963   1.8975
     1.9004   1.9039   3.3312   3.3330   3.3413   3.3446   3.3471   3.3508
     4.6995   4.6999   4.7023   4.7029   4.7598   4.7610   4.7727   4.7741
     4.7993   4.8014   6.1258   6.1276   6.1389   6.1459   6.2168   6.2173
     6.2187   6.2195   7.5274   7.5329   7.5374   7.5393   7.6335   7.6352
     7.8474   7.8479   7.8506   7.8513   8.9703   8.9706   8.9725   8.9729
     9.3249   9.3321

          k =-0.1667 0.5000-0.1667 ( 21228 PWs)   bands (ev):

    -2.5453  -2.5424  -1.0575  -1.0552  -1.0414  -1.0371   0.4206   0.4244
     0.4311   0.4338   0.4392   0.4460   1.8854   1.8878   1.8964   1.9000
     1.9012   1.9032   3.3298   3.3319   3.3407   3.3437   3.3501   3.3517
     4.6990   4.6998   4.7002   4.7051   4.7586   4.7601   4.7760   4.7768
     4.7976   4.7994   6.1246   6.1272   6.1409   6.1455   6.2157   6.2171
     6.2177   6.2222   7.5288   7.5312   7.5367   7.5408   7.6335   7.6352
     7.8474   7.8477   7.8481   7.8537   8.9691   8.9698   8.9718   8.9755
     9.3259   9.3290

          k =-0.5000 0.1667 0.5000 ( 21296 PWs)   bands (ev):

    -2.0583  -2.0475  -2.0383  -2.0295  -0.5675  -0.5566  -0.5474  -0.5385
     0.9075   0.9183   0.9276   0.9365   2.3589   2.3615   2.3673   2.3766
     2.3805   2.3820   2.3870   2.3949   3.7981   3.8005   3.8066   3.8159
     3.8201   3.8210   3.8264   3.8341   5.1527   5.1641   5.1742   5.1834
     5.2558   5.2590   5.2643   5.2738   5.2775   5.2800   5.2844   5.2926
     6.6554   6.6604   6.6657   6.6699   8.0856   8.0914   8.0958   8.1006
     8.3909   8.4011   8.4083   8.4169   9.3653   9.3684   9.3744   9.3868
     9.3906   9.3943

          k =-0.5000 0.5000 0.1667 ( 21296 PWs)   bands (ev):

    -2.0522  -2.0473  -2.0377  -2.0366  -0.5612  -0.5563  -0.5465  -0.5457
     0.9136   0.9185   0.9283   0.9293   2.3610   2.3662   2.3686   2.3745
     2.3774   2.3839   2.3874   2.3896   3.8001   3.8056   3.8076   3.8139
     3.8166   3.8229   3.8271   3.8291   5.1592   5.1646   5.1747   5.1757
     5.2585   5.2632   5.2663   5.2716   5.2749   5.2815   5.2842   5.2872
     6.6585   6.6611   6.6658   6.6664   8.0886   8.0913   8.0965   8.0971
     8.3963   8.4008   8.4098   8.4106   9.3667   9.3736   9.3761   9.3828
     9.3870   9.3964

     the Fermi energy is     7.8094 ev

!    total energy              =   -1264.06564807 Ry
     Harris-Foulkes estimate   =   -1264.06564838 Ry
     estimated scf accuracy    <       0.00000044 Ry

     total all-electron energy =    -15540.634625 Ry

     The total energy is the sum of the following terms:

     one-electron contribution =     101.21055800 Ry
     hartree contribution      =       0.20423191 Ry
     xc contribution           =     -82.90880943 Ry
     ewald contribution        =    -172.89582341 Ry
     one-center paw contrib.   =   -1109.67849953 Ry
     smearing contrib. (-TS)   =       0.00269439 Ry

     convergence has been achieved in  10 iterations

     Forces acting on atoms (cartesian axes, Ry/au):

     atom    1 type  1   force =    -0.00001084   -0.00000103    0.00008893
     atom    2 type  1   force =    -0.00036632    0.00084607    0.00032392
     atom    3 type  1   force =     0.00091607   -0.00007847   -0.00205332
     atom    4 type  1   force =    -0.00015315   -0.00066322   -0.00134012
     atom    5 type  1   force =    -0.00173396   -0.00155230    0.00126874
     atom    6 type  1   force =    -0.00055667    0.00171548   -0.00002286
     atom    7 type  1   force =    -0.00055465   -0.00211819    0.00130250
     atom    8 type  1   force =     0.00013920   -0.00030208   -0.00104167
     atom    9 type  1   force =     0.00001103   -0.00030381    0.00050174
     atom   10 type  1   force =    -0.00064654   -0.00033235   -0.00260067
     atom   11 type  1   force =    -0.00094323   -0.00102991   -0.00154352
     atom   12 type  1   force =    -0.00033640    0.00014557   -0.00024931
     atom   13 type  1   force =    -0.00070062   -0.00134605   -0.00014780
     atom   14 type  1   force =    -0.00007381    0.00061730    0.00166415
     atom   15 type  1   force =    -0.00204669    0.00123918    0.00199467
     atom   16 type  1   force =     0.00245322    0.00199065    0.00050416
     atom   17 type  1   force =    -0.00173075    0.00015024    0.00038083
     atom   18 type  1   force =     0.00077131   -0.00021108    0.00173013
     atom   19 type  1   force =     0.00203232    0.00093174   -0.00033481
     atom   20 type  1   force =     0.00030302    0.00082089    0.00027409
     atom   21 type  1   force =     0.00076518   -0.00218041    0.00043939
     atom   22 type  1   force =    -0.00054978    0.00231962    0.00050637
     atom   23 type  1   force =     0.00045018   -0.00038889   -0.00084375
     atom   24 type  1   force =     0.00048622    0.00054048   -0.00036608
     atom   25 type  1   force =     0.00039417   -0.00070085    0.00134023
     atom   26 type  1   force =     0.00119635   -0.00089365   -0.00099539
     atom   27 type  1   force =    -0.00067296    0.00007543    0.00045513
     atom   28 type  1   force =    -0.00040072    0.00096941   -0.00027687
     atom   29 type  1   force =     0.00329511   -0.00138175   -0.00042018
     atom   30 type  1   force =    -0.00104996    0.00017947    0.00097934
     atom   31 type  1   force =    -0.00036747   -0.00022077   -0.00140197
     atom   32 type  1   force =    -0.00031885    0.00116326   -0.00011600

     Total force =     0.010768     Total SCF correction =     0.000839


     Computing stress (Cartesian axis) and pressure

          total   stress  (Ry/bohr**3)                   (kbar)     P=   -1.33
  -0.00000899  -0.00000002  -0.00000002         -1.32     -0.00     -0.00
  -0.00000002  -0.00000900   0.00000002         -0.00     -1.32      0.00
  -0.00000002   0.00000002  -0.00000905         -0.00      0.00     -1.33


     Writing output data file ReQNDHXjztmsjmGv.save/

     init_run     :     27.47s CPU     27.70s WALL (       1 calls)
     electrons    :    374.19s CPU    379.93s WALL (       1 calls)
     forces       :     11.77s CPU     11.83s WALL (       1 calls)
     stress       :     14.85s CPU     14.85s WALL (       1 calls)

     Called by init_run:
     wfcinit      :     26.83s CPU     27.03s WALL (       1 calls)
     potinit      :      0.32s CPU      0.33s WALL (       1 calls)
     hinit0       :      0.15s CPU      0.15s WALL (       1 calls)

     Called by electrons:
     c_bands      :    331.14s CPU    336.14s WALL (      11 calls)
     sum_band     :     38.48s CPU     39.15s WALL (      11 calls)
     v_of_rho     :      0.54s CPU      0.56s WALL (      11 calls)
     newd         :      1.56s CPU      1.61s WALL (      11 calls)
     PAW_pot      :      2.77s CPU      2.77s WALL (      11 calls)
     mix_rho      :      0.12s CPU      0.13s WALL (      11 calls)

     Called by c_bands:
     init_us_2    :      2.23s CPU      2.28s WALL (     350 calls)
     cegterg      :    327.00s CPU    331.62s WALL (     154 calls)

     Called by sum_band:
     sum_band:bec :      0.03s CPU      0.03s WALL (     154 calls)
     addusdens    :      1.38s CPU      1.61s WALL (      11 calls)

     Called by *egterg:
     h_psi        :    193.78s CPU    196.79s WALL (     522 calls)
     s_psi        :     76.77s CPU     77.13s WALL (     522 calls)
     g_psi        :      0.26s CPU      0.26s WALL (     354 calls)
     cdiaghg      :      4.26s CPU      4.28s WALL (     494 calls)

     Called by h_psi:
     h_psi:pot    :    193.28s CPU    195.93s WALL (     522 calls)
     h_psi:calbec :     79.92s CPU     80.17s WALL (     522 calls)
     vloc_psi     :     35.08s CPU     37.40s WALL (     522 calls)
     add_vuspsi   :     78.27s CPU     78.36s WALL (     522 calls)

     General routines
     calbec       :    122.44s CPU    122.77s WALL (     746 calls)
     fft          :      0.29s CPU      0.31s WALL (     147 calls)
     ffts         :      0.02s CPU      0.02s WALL (      11 calls)
     fftw         :     38.09s CPU     40.52s WALL (   58022 calls)

     Parallel routines
     fft_scatt_xy :      5.04s CPU      5.38s WALL (   58180 calls)
     fft_scatt_yz :     11.15s CPU     11.91s WALL (   58180 calls)

     PWSCF        :   7m 8.71s CPU   7m15.19s WALL


   This run was terminated on:   1:52:59  17Jul2021            

=------------------------------------------------------------------------------=
   JOB DONE.
=------------------------------------------------------------------------------=
