
     Program PWSCF v.6.4.1 starts on 19Jul2021 at  5:15: 0 

     This program is part of the open-source Quantum ESPRESSO suite
     for quantum simulation of materials; please cite
         "P. Giannozzi et al., J. Phys.:Condens. Matter 21 395502 (2009);
         "P. Giannozzi et al., J. Phys.:Condens. Matter 29 465901 (2017);
          URL http://www.quantum-espresso.org", 
     in publications or presentations arising from this work. More details at
     http://www.quantum-espresso.org/quote

     Parallel version (MPI), running on     4 processors

     MPI processes distributed on     1 nodes
     R & G space division:  proc/nbgrp/npool/nimage =       4
     Reading input from /cloud/Code/python/qeforfit/examples/al/01/wd/configs/15/config_0005.in
Warning: card &IONS ignored
Warning: card ION_DYNAMICS = 'BFGS', ignored
Warning: card / ignored
Warning: card &CELL ignored
Warning: card CELL_DYNAMICS = 'BFGS', ignored
Warning: card CELL_FACTOR = 2.0, ignored
Warning: card PRESS = 0.0, ignored
Warning: card / ignored

     Current dimensions of program PWSCF are:
     Max number of different atomic species (ntypx) = 10
     Max number of k-points (npk) =  40000
     Max angular momentum in pseudopotentials (lmaxx) =  3
               file Al.pbe-nl-kjpaw_psl.1.0.0.UPF: wavefunction(s)  3S 3P renormalized

     Subspace diagonalization in iterative solution of the eigenvalue problem:
     a serial algorithm will be used


     Parallelization info
     --------------------
     sticks:   dense  smooth     PW     G-vecs:    dense   smooth      PW
     Min         929     929    258                42677    42677    6208
     Max         931     931    259                42678    42678    6211
     Sum        3721    3721   1033               170709   170709   24837



     bravais-lattice index     =            0
     lattice parameter (alat)  =      15.2891  a.u.
     unit-cell volume          =    3573.8999 (a.u.)^3
     number of atoms/cell      =           32
     number of atomic types    =            1
     number of electrons       =        96.00
     number of Kohn-Sham states=           58
     kinetic-energy cutoff     =      50.0000  Ry
     charge density cutoff     =     200.0000  Ry
     convergence threshold     =      1.0E-06
     mixing beta               =       0.1000
     number of iterations used =           10  TF        mixing
     Exchange-correlation      = SLA PW PBX PBC ( 1  4  3  4 0 0)

     celldm(1)=  15.289060  celldm(2)=   0.000000  celldm(3)=   0.000000
     celldm(4)=   0.000000  celldm(5)=   0.000000  celldm(6)=   0.000000

     crystal axes: (cart. coord. in units of alat)
               a(1) = (   1.000000   0.000000   0.000000 )  
               a(2) = (   0.000000   1.000000   0.000000 )  
               a(3) = (   0.000000   0.000000   1.000000 )  

     reciprocal axes: (cart. coord. in units 2 pi/alat)
               b(1) = (  1.000000  0.000000  0.000000 )  
               b(2) = (  0.000000  1.000000  0.000000 )  
               b(3) = (  0.000000  0.000000  1.000000 )  


     PseudoPot. # 1 for Al read from file:
     /opt/pp/Al.pbe-nl-kjpaw_psl.1.0.0.UPF
     MD5 check sum: 1b67f78b73fe58c7924490f171ce8a1e
     Pseudo is Projector augmented-wave + core cor, Zval =  3.0
     Generated using "atomic" code by A. Dal Corso v.6.3
     Shape of augmentation charge: PSQ
     Using radial grid of 1135 points,  4 beta functions with: 
                l(1) =   0
                l(2) =   0
                l(3) =   1
                l(4) =   1
     Q(r) pseudized with 0 coefficients 


     atomic species   valence    mass     pseudopotential
        Al             3.00    26.98200     Al( 1.00)

     No symmetry found



   Cartesian axes

     site n.     atom                  positions (alat units)
         1           Al  tau(   1) = (  -0.0057547  -0.0050805  -0.0041452  )
         2           Al  tau(   2) = (   0.2460396   0.2417314  -0.0041087  )
         3           Al  tau(   3) = (   0.2432834  -0.0047452   0.2494898  )
         4           Al  tau(   4) = (  -0.0055522   0.2482627   0.2477031  )
         5           Al  tau(   5) = (  -0.0011444  -0.0012033   0.4928655  )
         6           Al  tau(   6) = (   0.2466760   0.2420919   0.4948248  )
         7           Al  tau(   7) = (   0.2452116  -0.0027733   0.7429781  )
         8           Al  tau(   8) = (  -0.0043548   0.2465835   0.7481254  )
         9           Al  tau(   9) = (  -0.0014376   0.4964902  -0.0054792  )
        10           Al  tau(  10) = (   0.2469985   0.7475836   0.0012457  )
        11           Al  tau(  11) = (   0.2477895   0.4965070   0.2487796  )
        12           Al  tau(  12) = (  -0.0046198   0.7454954   0.2451724  )
        13           Al  tau(  13) = (  -0.0034721   0.4972632   0.4963498  )
        14           Al  tau(  14) = (   0.2441927   0.7457782   0.4927002  )
        15           Al  tau(  15) = (   0.2501463   0.4914013   0.7399095  )
        16           Al  tau(  16) = (  -0.0104744   0.7400613   0.7446580  )
        17           Al  tau(  17) = (   0.4980227  -0.0068371  -0.0058514  )
        18           Al  tau(  18) = (   0.7433666   0.2462709  -0.0089586  )
        19           Al  tau(  19) = (   0.7389406  -0.0067650   0.2460001  )
        20           Al  tau(  20) = (   0.4943704   0.2441501   0.2420781  )
        21           Al  tau(  21) = (   0.4935070  -0.0005512   0.4943293  )
        22           Al  tau(  22) = (   0.7458600   0.2399065   0.4940048  )
        23           Al  tau(  23) = (   0.7453387  -0.0063296   0.7451776  )
        24           Al  tau(  24) = (   0.4949495   0.2429520   0.7446849  )
        25           Al  tau(  25) = (   0.4924116   0.4966150  -0.0087362  )
        26           Al  tau(  26) = (   0.7411290   0.7463308  -0.0008595  )
        27           Al  tau(  27) = (   0.7463768   0.4915998   0.2439074  )
        28           Al  tau(  28) = (   0.4961701   0.7414243   0.2481117  )
        29           Al  tau(  29) = (   0.4895913   0.4964085   0.4954132  )
        30           Al  tau(  30) = (   0.7474167   0.7445634   0.4924447  )
        31           Al  tau(  31) = (   0.7439229   0.4949187   0.7469944  )
        32           Al  tau(  32) = (   0.4949944   0.7439467   0.7434524  )

     number of k points=    14  Marzari-Vanderbilt smearing, width (Ry)=  0.0200
                       cart. coord. in units 2pi/alat
        k(    1) = (   0.1666667   0.1666667   0.1666667), wk =   0.1481481
        k(    2) = (   0.1666667   0.1666667  -0.5000000), wk =   0.1481481
        k(    3) = (   0.1666667  -0.5000000  -0.5000000), wk =   0.1481481
        k(    4) = (  -0.5000000  -0.5000000  -0.5000000), wk =   0.0740741
        k(    5) = (  -0.1666667  -0.1666667   0.1666667), wk =   0.1481481
        k(    6) = (  -0.1666667   0.1666667  -0.1666667), wk =   0.1481481
        k(    7) = (   0.1666667  -0.1666667  -0.1666667), wk =   0.1481481
        k(    8) = (  -0.1666667   0.1666667   0.5000000), wk =   0.1481481
        k(    9) = (  -0.5000000  -0.1666667   0.1666667), wk =   0.1481481
        k(   10) = (   0.5000000  -0.1666667  -0.1666667), wk =   0.1481481
        k(   11) = (  -0.1666667  -0.5000000   0.1666667), wk =   0.1481481
        k(   12) = (  -0.1666667   0.5000000  -0.1666667), wk =   0.1481481
        k(   13) = (  -0.5000000   0.1666667   0.5000000), wk =   0.1481481
        k(   14) = (  -0.5000000   0.5000000   0.1666667), wk =   0.1481481

     Dense  grid:   170709 G-vectors     FFT dimensions: (  72,  72,  72)

     Estimated max dynamical RAM per process >     208.76 MB

     Estimated total dynamical RAM >     835.04 MB

     Initial potential from superposition of free atoms

     starting charge   95.92671, renormalised to   96.00000
     Starting wfcs are  128 randomized atomic wfcs
     Checking if some PAW data can be deallocated... 

     total cpu time spent up to now is       28.2 secs

     Self-consistent Calculation

     iteration #  1     ecut=    50.00 Ry     beta= 0.10
     Davidson diagonalization with overlap
     ethr =  1.00E-02,  avg # of iterations =  3.0

     Threshold (ethr) on eigenvalues was too large:
     Diagonalizing with lowered threshold

     Davidson diagonalization with overlap
     ethr =  2.00E-04,  avg # of iterations =  3.6

     total cpu time spent up to now is      110.2 secs

     total energy              =   -1264.10348985 Ry
     Harris-Foulkes estimate   =   -1264.10997709 Ry
     estimated scf accuracy    <       0.18932019 Ry

     iteration #  2     ecut=    50.00 Ry     beta= 0.10
     Davidson diagonalization with overlap
     ethr =  1.97E-04,  avg # of iterations =  1.0

     total cpu time spent up to now is      136.5 secs

     total energy              =   -1264.05321715 Ry
     Harris-Foulkes estimate   =   -1264.10435741 Ry
     estimated scf accuracy    <       0.16454454 Ry

     iteration #  3     ecut=    50.00 Ry     beta= 0.10
     Davidson diagonalization with overlap
     ethr =  1.71E-04,  avg # of iterations =  1.0

     total cpu time spent up to now is      162.8 secs

     total energy              =   -1264.05769387 Ry
     Harris-Foulkes estimate   =   -1264.05775365 Ry
     estimated scf accuracy    <       0.00071359 Ry

     iteration #  4     ecut=    50.00 Ry     beta= 0.10
     Davidson diagonalization with overlap
     c_bands:  2 eigenvalues not converged
     ethr =  7.43E-07,  avg # of iterations =  6.3

     total cpu time spent up to now is      231.0 secs

     total energy              =   -1264.05909144 Ry
     Harris-Foulkes estimate   =   -1264.05908940 Ry
     estimated scf accuracy    <       0.00149306 Ry

     iteration #  5     ecut=    50.00 Ry     beta= 0.10
     Davidson diagonalization with overlap
     ethr =  7.43E-07,  avg # of iterations =  1.7

     total cpu time spent up to now is      257.7 secs

     total energy              =   -1264.05886607 Ry
     Harris-Foulkes estimate   =   -1264.05909301 Ry
     estimated scf accuracy    <       0.00150846 Ry

     iteration #  6     ecut=    50.00 Ry     beta= 0.10
     Davidson diagonalization with overlap
     ethr =  7.43E-07,  avg # of iterations =  1.0

     total cpu time spent up to now is      284.1 secs

     total energy              =   -1264.05835178 Ry
     Harris-Foulkes estimate   =   -1264.05887742 Ry
     estimated scf accuracy    <       0.00101670 Ry

     iteration #  7     ecut=    50.00 Ry     beta= 0.10
     Davidson diagonalization with overlap
     ethr =  7.43E-07,  avg # of iterations =  3.3

     total cpu time spent up to now is      324.9 secs

     total energy              =   -1264.05857622 Ry
     Harris-Foulkes estimate   =   -1264.05858067 Ry
     estimated scf accuracy    <       0.00009033 Ry

     iteration #  8     ecut=    50.00 Ry     beta= 0.10
     Davidson diagonalization with overlap
     ethr =  9.41E-08,  avg # of iterations =  1.8

     total cpu time spent up to now is      351.7 secs

     total energy              =   -1264.05856254 Ry
     Harris-Foulkes estimate   =   -1264.05857958 Ry
     estimated scf accuracy    <       0.00008082 Ry

     iteration #  9     ecut=    50.00 Ry     beta= 0.10
     Davidson diagonalization with overlap
     ethr =  8.42E-08,  avg # of iterations =  1.0

     total cpu time spent up to now is      377.9 secs

     total energy              =   -1264.05855637 Ry
     Harris-Foulkes estimate   =   -1264.05856652 Ry
     estimated scf accuracy    <       0.00002085 Ry

     iteration # 10     ecut=    50.00 Ry     beta= 0.10
     Davidson diagonalization with overlap
     ethr =  2.17E-08,  avg # of iterations =  5.9

     total cpu time spent up to now is      426.9 secs

     total energy              =   -1264.05857490 Ry
     Harris-Foulkes estimate   =   -1264.05858473 Ry
     estimated scf accuracy    <       0.00011952 Ry

     iteration # 11     ecut=    50.00 Ry     beta= 0.10
     Davidson diagonalization with overlap
     ethr =  2.17E-08,  avg # of iterations =  1.3

     total cpu time spent up to now is      453.4 secs

     total energy              =   -1264.05855394 Ry
     Harris-Foulkes estimate   =   -1264.05857578 Ry
     estimated scf accuracy    <       0.00007354 Ry

     iteration # 12     ecut=    50.00 Ry     beta= 0.10
     Davidson diagonalization with overlap
     ethr =  2.17E-08,  avg # of iterations =  3.7

     total cpu time spent up to now is      494.2 secs

     total energy              =   -1264.05856458 Ry
     Harris-Foulkes estimate   =   -1264.05856498 Ry
     estimated scf accuracy    <       0.00000101 Ry

     iteration # 13     ecut=    50.00 Ry     beta= 0.10
     Davidson diagonalization with overlap
     ethr =  1.05E-09,  avg # of iterations =  2.1

     total cpu time spent up to now is      525.1 secs

     End of self-consistent calculation

          k = 0.1667 0.1667 0.1667 ( 21266 PWs)   bands (ev):

    -3.0600  -1.6036  -1.5649  -1.5168  -0.1389  -0.1239  -0.0918  -0.0697
    -0.0507   0.0053   1.3213   1.3442   1.3772   1.3989   1.4113   1.4247
     1.4572   2.7777   2.8161   2.8350   2.8529   2.8690   2.9050   4.1902
     4.2007   4.2130   4.2902   4.3036   4.3141   5.5606   5.5652   5.6133
     5.6240   5.6465   5.6644   5.7271   6.9674   6.9779   6.9896   7.0214
     7.0319   7.0442   7.0586   7.0729   7.1083   7.3575   7.3662   7.3815
     8.3973   8.4042   8.4313   8.4515   8.4718   8.4815   8.7389   8.7472
     8.7667   8.7910

          k = 0.1667 0.1667-0.5000 ( 21312 PWs)   bands (ev):

    -2.5791  -2.5393  -1.0934  -1.0818  -1.0555  -1.0316   0.3507   0.3838
     0.4096   0.4256   0.4492   0.4579   1.8457   1.8516   1.8673   1.8762
     1.9008   1.9087   3.2830   3.3001   3.3096   3.3177   3.3386   3.3588
     4.6457   4.6522   4.6810   4.6887   4.7203   4.7401   4.7450   4.7648
     4.7806   4.7975   6.0768   6.0874   6.1067   6.1409   6.1778   6.1878
     6.1970   6.2137   7.4738   7.4847   7.5117   7.5375   7.5935   7.6142
     7.7936   7.8069   7.8320   7.8469   8.9211   8.9248   8.9425   8.9563
     9.2700   9.2785

          k = 0.1667-0.5000-0.5000 ( 21356 PWs)   bands (ev):

    -2.0972  -2.0809  -2.0409  -2.0195  -0.6085  -0.5903  -0.5522  -0.5296
     0.8641   0.8824   0.9200   0.9426   2.2912   2.3125   2.3234   2.3387
     2.3549   2.3894   2.4032   2.4163   3.7273   3.7509   3.7631   3.7782
     3.7909   3.8278   3.8422   3.8525   5.1018   5.1218   5.1592   5.1780
     5.1901   5.2053   5.2176   5.2333   5.2502   5.2828   5.2984   5.3088
     6.6145   6.6241   6.6441   6.6560   8.0409   8.0517   8.0691   8.0817
     8.3333   8.3505   8.3826   8.4046   9.2748   9.3020   9.3187   9.3365
     9.3524   9.3899

          k =-0.5000-0.5000-0.5000 ( 21368 PWs)   bands (ev):

    -1.6378  -1.6244  -1.5832  -1.5722  -1.5525  -1.5247  -1.5162  -1.4753
     2.7135   2.7173   2.7393   2.7488   2.7691   2.7846   2.7873   2.8032
     2.8080   2.8178   2.8237   2.8311   2.8374   2.8447   2.8530   2.8567
     2.8687   2.8835   2.8946   2.8967   2.9107   2.9365   2.9581   2.9919
     7.0027   7.0183   7.0309   7.0400   7.0575   7.0680   7.0746   7.0790
     7.0803   7.0922   7.1115   7.1194   7.1307   7.1349   7.1384   7.1490
     7.1553   7.1691   7.1740   7.1776   7.1942   7.2031   7.2309   7.2335
    11.2548  11.2607

          k =-0.1667-0.1667 0.1667 ( 21266 PWs)   bands (ev):

    -3.0601  -1.5948  -1.5658  -1.5258  -0.1353  -0.1115  -0.0924  -0.0675
    -0.0368  -0.0258   1.3151   1.3653   1.3749   1.3881   1.4078   1.4257
     1.4583   2.7946   2.8171   2.8299   2.8476   2.8652   2.9013   4.1964
     4.2045   4.2102   4.2933   4.3006   4.3067   5.5449   5.5939   5.6020
     5.6199   5.6450   5.6692   5.7254   6.9759   6.9874   7.0033   7.0127
     7.0300   7.0367   7.0551   7.0723   7.0999   7.3606   7.3686   7.3766
     8.4016   8.4186   8.4356   8.4468   8.4571   8.4811   8.7353   8.7548
     8.7719   8.7889

          k =-0.1667 0.1667-0.1667 ( 21266 PWs)   bands (ev):

    -3.0600  -1.6028  -1.5625  -1.5205  -0.1410  -0.1176  -0.0859  -0.0636
    -0.0443  -0.0175   1.3303   1.3445   1.3680   1.3864   1.4116   1.4348
     1.4597   2.7957   2.8121   2.8248   2.8543   2.8714   2.8974   4.1906
     4.2024   4.2147   4.2879   4.3021   4.3150   5.5623   5.5715   5.5922
     5.6128   5.6520   5.6803   5.7280   6.9792   6.9829   6.9965   7.0086
     7.0300   7.0480   7.0603   7.0724   7.0969   7.3539   7.3689   7.3808
     8.3991   8.4118   8.4223   8.4594   8.4668   8.4822   8.7346   8.7512
     8.7680   8.7940

          k = 0.1667-0.1667-0.1667 ( 21266 PWs)   bands (ev):

    -3.0601  -1.5976  -1.5719  -1.5159  -0.1427  -0.1117  -0.0891  -0.0821
    -0.0593   0.0165   1.3322   1.3420   1.3591   1.3913   1.4059   1.4222
     1.4819   2.7822   2.8131   2.8231   2.8487   2.8677   2.9205   4.1886
     4.2034   4.2161   4.2867   4.3014   4.3154   5.5583   5.5758   5.5969
     5.6193   5.6422   5.6826   5.7265   6.9613   6.9740   6.9957   7.0070
     7.0254   7.0446   7.0694   7.0830   7.1085   7.3561   7.3690   7.3861
     8.3887   8.4172   8.4263   8.4547   8.4620   8.4837   8.7413   8.7497
     8.7612   8.7966

          k =-0.1667 0.1667 0.5000 ( 21312 PWs)   bands (ev):

    -2.5791  -2.5393  -1.1023  -1.0716  -1.0629  -1.0250   0.3557   0.3766
     0.4027   0.4257   0.4461   0.4698   1.8291   1.8576   1.8690   1.8782
     1.8977   1.9187   3.2842   3.2941   3.3104   3.3246   3.3429   3.3518
     4.6364   4.6617   4.6789   4.6978   4.7178   4.7302   4.7369   4.7511
     4.7930   4.8123   6.0658   6.1000   6.1047   6.1446   6.1707   6.1907
     6.1968   6.2139   7.4702   7.4895   7.5117   7.5350   7.5923   7.6136
     7.7886   7.8138   7.8267   7.8539   8.9154   8.9308   8.9437   8.9562
     9.2663   9.2830

          k =-0.5000-0.1667 0.1667 ( 21312 PWs)   bands (ev):

    -2.5810  -2.5370  -1.1130  -1.0678  -1.0556  -1.0265   0.3608   0.3851
     0.4031   0.4254   0.4416   0.4611   1.8358   1.8516   1.8629   1.8810
     1.9051   1.9148   3.2804   3.2954   3.3134   3.3267   3.3367   3.3525
     4.6471   4.6502   4.6817   4.6997   4.7155   4.7356   4.7494   4.7677
     4.7728   4.7981   6.0558   6.1009   6.1167   6.1465   6.1720   6.1869
     6.1907   6.2179   7.4640   7.4923   7.5194   7.5341   7.5934   7.6133
     7.7939   7.8009   7.8276   7.8551   8.9135   8.9326   8.9356   8.9673
     9.2590   9.2854

          k = 0.5000-0.1667-0.1667 ( 21312 PWs)   bands (ev):

    -2.5810  -2.5370  -1.1179  -1.0675  -1.0562  -1.0201   0.3389   0.3821
     0.3991   0.4283   0.4384   0.4913   1.8389   1.8451   1.8630   1.8782
     1.9066   1.9166   3.2721   3.2873   3.3062   3.3271   3.3455   3.3691
     4.6361   4.6513   4.6775   4.6926   4.7067   4.7259   4.7464   4.7701
     4.7936   4.8198   6.0479   6.1013   6.1139   6.1445   6.1713   6.1886
     6.2008   6.2156   7.4656   7.4867   7.5029   7.5436   7.5949   7.6124
     7.7855   7.8133   7.8343   7.8553   8.9169   8.9308   8.9456   8.9581
     9.2608   9.2823

          k =-0.1667-0.5000 0.1667 ( 21312 PWs)   bands (ev):

    -2.5650  -2.5536  -1.0990  -1.0920  -1.0487  -1.0230   0.3654   0.3771
     0.4050   0.4102   0.4429   0.4803   1.8430   1.8576   1.8702   1.8768
     1.8900   1.9074   3.2784   3.2870   3.3144   3.3270   3.3429   3.3563
     4.6594   4.6672   4.6699   4.6789   4.7119   4.7228   4.7491   4.7519
     4.7997   4.8124   6.0694   6.0768   6.1213   6.1489   6.1855   6.1893
     6.1929   6.2006   7.4741   7.4958   7.5129   7.5195   7.5993   7.6067
     7.8114   7.8151   7.8256   7.8325   8.9320   8.9338   8.9404   8.9432
     9.2674   9.2903

          k =-0.1667 0.5000-0.1667 ( 21312 PWs)   bands (ev):

    -2.5649  -2.5536  -1.1040  -1.0951  -1.0394  -1.0240   0.3664   0.3815
     0.4064   0.4168   0.4406   0.4672   1.8394   1.8474   1.8705   1.8908
     1.8963   1.9037   3.2730   3.2825   3.3116   3.3244   3.3535   3.3606
     4.6543   4.6635   4.6680   4.6875   4.7085   4.7166   4.7614   4.7763
     4.7823   4.8013   6.0654   6.0771   6.1271   6.1446   6.1830   6.1867
     6.1926   6.2116   7.4807   7.4894   7.5118   7.5278   7.5984   7.6050
     7.8120   7.8141   7.8158   7.8374   8.9264   8.9297   8.9383   8.9528
     9.2744   9.2861

          k =-0.5000 0.1667 0.5000 ( 21356 PWs)   bands (ev):

    -2.1188  -2.0745  -2.0384  -2.0040  -0.6317  -0.5862  -0.5510  -0.5150
     0.8435   0.8855   0.9228   0.9572   2.2859   2.2969   2.3194   2.3566
     2.3720   2.3776   2.3981   2.4296   3.7222   3.7312   3.7554   3.7936
     3.8105   3.8131   3.8344   3.8654   5.0788   5.1244   5.1623   5.1773
     5.1912   5.2002   5.2121   5.2493   5.2646   5.2737   5.2910   5.3238
     6.6060   6.6253   6.6468   6.6629   8.0291   8.0511   8.0698   8.0887
     8.3145   8.3552   8.3828   8.4180   9.2744   9.2865   9.3101   9.3541
     9.3676   9.3779

          k =-0.5000 0.5000 0.1667 ( 21356 PWs)   bands (ev):

    -2.0946  -2.0749  -2.0381  -2.0318  -0.6044  -0.5851  -0.5465  -0.5431
     0.8663   0.8853   0.9249   0.9299   2.2945   2.3147   2.3235   2.3479
     2.3601   2.3856   2.3990   2.4082   3.7303   3.7525   3.7606   3.7848
     3.7959   3.8212   3.8387   3.8455   5.1040   5.1256   5.1629   5.1664
     5.1928   5.2066   5.2186   5.2414   5.2540   5.2791   5.2904   5.3028
     6.6185   6.6292   6.6473   6.6507   8.0404   8.0516   8.0721   8.0748
     8.3359   8.3536   8.3901   8.3927   9.2804   9.3046   9.3147   9.3415
     9.3559   9.3884

     the Fermi energy is     7.7787 ev

!    total energy              =   -1264.05856441 Ry
     Harris-Foulkes estimate   =   -1264.05856470 Ry
     estimated scf accuracy    <       0.00000030 Ry

     total all-electron energy =    -15540.627541 Ry

     The total energy is the sum of the following terms:

     one-electron contribution =     100.92124038 Ry
     hartree contribution      =       0.23502706 Ry
     xc contribution           =     -82.86640417 Ry
     ewald contribution        =    -172.67703913 Ry
     one-center paw contrib.   =   -1109.67456775 Ry
     smearing contrib. (-TS)   =       0.00317919 Ry

     convergence has been achieved in  13 iterations

     Forces acting on atoms (cartesian axes, Ry/au):

     atom    1 type  1   force =    -0.00009736   -0.00004383    0.00029785
     atom    2 type  1   force =    -0.00151854    0.00318659    0.00117285
     atom    3 type  1   force =     0.00361315   -0.00023529   -0.00852250
     atom    4 type  1   force =    -0.00014119   -0.00251268   -0.00528932
     atom    5 type  1   force =    -0.00721347   -0.00612950    0.00511476
     atom    6 type  1   force =    -0.00216486    0.00724268   -0.00013859
     atom    7 type  1   force =    -0.00205621   -0.00813302    0.00525142
     atom    8 type  1   force =     0.00059337   -0.00119857   -0.00406066
     atom    9 type  1   force =     0.00016428   -0.00125628    0.00208921
     atom   10 type  1   force =    -0.00240789   -0.00098294   -0.00951893
     atom   11 type  1   force =    -0.00407808   -0.00419778   -0.00647014
     atom   12 type  1   force =    -0.00137128    0.00062036   -0.00112470
     atom   13 type  1   force =    -0.00266115   -0.00532352   -0.00066513
     atom   14 type  1   force =    -0.00033813    0.00246094    0.00669014
     atom   15 type  1   force =    -0.00869467    0.00433822    0.00793116
     atom   16 type  1   force =     0.00919842    0.00796282    0.00209581
     atom   17 type  1   force =    -0.00690527    0.00089868    0.00123090
     atom   18 type  1   force =     0.00294600   -0.00093395    0.00675822
     atom   19 type  1   force =     0.00790874    0.00344104   -0.00125151
     atom   20 type  1   force =     0.00116560    0.00316908    0.00101896
     atom   21 type  1   force =     0.00309042   -0.00871569    0.00169294
     atom   22 type  1   force =    -0.00191108    0.00877679    0.00200879
     atom   23 type  1   force =     0.00184054   -0.00149259   -0.00320332
     atom   24 type  1   force =     0.00197796    0.00207679   -0.00133405
     atom   25 type  1   force =     0.00138768   -0.00276070    0.00535288
     atom   26 type  1   force =     0.00500351   -0.00364729   -0.00395456
     atom   27 type  1   force =    -0.00262924    0.00051947    0.00166773
     atom   28 type  1   force =    -0.00140678    0.00379572   -0.00113633
     atom   29 type  1   force =     0.01337292   -0.00532061   -0.00179885
     atom   30 type  1   force =    -0.00405575    0.00065680    0.00383952
     atom   31 type  1   force =    -0.00141850   -0.00092724   -0.00536249
     atom   32 type  1   force =    -0.00119316    0.00466550   -0.00038206

     Total force =     0.042568     Total SCF correction =     0.000628


     Computing stress (Cartesian axis) and pressure

          total   stress  (Ry/bohr**3)                   (kbar)     P=   -2.65
  -0.00001775  -0.00000035  -0.00000036         -2.61     -0.05     -0.05
  -0.00000035  -0.00001787   0.00000036         -0.05     -2.63      0.05
  -0.00000036   0.00000036  -0.00001852         -0.05      0.05     -2.72


     Writing output data file CVgWGJoyuiacBmnv.save/

     init_run     :     27.54s CPU     27.87s WALL (       1 calls)
     electrons    :    489.79s CPU    496.86s WALL (       1 calls)
     forces       :     11.81s CPU     11.87s WALL (       1 calls)
     stress       :     14.97s CPU     14.99s WALL (       1 calls)

     Called by init_run:
     wfcinit      :     26.91s CPU     27.20s WALL (       1 calls)
     potinit      :      0.32s CPU      0.32s WALL (       1 calls)
     hinit0       :      0.15s CPU      0.15s WALL (       1 calls)

     Called by electrons:
     c_bands      :    434.62s CPU    440.75s WALL (      14 calls)
     sum_band     :     49.24s CPU     50.06s WALL (      14 calls)
     v_of_rho     :      0.66s CPU      0.71s WALL (      14 calls)
     newd         :      2.01s CPU      2.07s WALL (      14 calls)
     PAW_pot      :      3.49s CPU      3.50s WALL (      14 calls)
     mix_rho      :      0.19s CPU      0.20s WALL (      14 calls)

     Called by c_bands:
     init_us_2    :      2.72s CPU      2.79s WALL (     434 calls)
     cegterg      :    429.48s CPU    435.23s WALL (     196 calls)

     Called by sum_band:
     sum_band:bec :      0.04s CPU      0.04s WALL (     196 calls)
     addusdens    :      1.88s CPU      2.11s WALL (      14 calls)

     Called by *egterg:
     h_psi        :    250.21s CPU    253.97s WALL (     723 calls)
     s_psi        :     99.26s CPU     99.76s WALL (     723 calls)
     g_psi        :      0.35s CPU      0.35s WALL (     513 calls)
     cdiaghg      :      6.46s CPU      6.47s WALL (     695 calls)

     Called by h_psi:
     h_psi:pot    :    249.59s CPU    252.89s WALL (     723 calls)
     h_psi:calbec :    102.42s CPU    102.72s WALL (     723 calls)
     vloc_psi     :     45.22s CPU     48.06s WALL (     723 calls)
     add_vuspsi   :    101.95s CPU    102.11s WALL (     723 calls)

     General routines
     calbec       :    152.80s CPU    153.24s WALL (     989 calls)
     fft          :      0.32s CPU      0.35s WALL (     180 calls)
     ffts         :      0.02s CPU      0.02s WALL (      14 calls)
     fftw         :     48.96s CPU     51.98s WALL (   74000 calls)

     Parallel routines
     fft_scatt_xy :      6.12s CPU      6.53s WALL (   74194 calls)
     fft_scatt_yz :     14.74s CPU     15.70s WALL (   74194 calls)

     PWSCF        :   9m 4.56s CPU   9m12.25s WALL


   This run was terminated on:   5:24:12  19Jul2021            

=------------------------------------------------------------------------------=
   JOB DONE.
=------------------------------------------------------------------------------=
