
     Program PWSCF v.6.4.1 starts on 19Jul2021 at  9:27:51 

     This program is part of the open-source Quantum ESPRESSO suite
     for quantum simulation of materials; please cite
         "P. Giannozzi et al., J. Phys.:Condens. Matter 21 395502 (2009);
         "P. Giannozzi et al., J. Phys.:Condens. Matter 29 465901 (2017);
          URL http://www.quantum-espresso.org", 
     in publications or presentations arising from this work. More details at
     http://www.quantum-espresso.org/quote

     Parallel version (MPI), running on     4 processors

     MPI processes distributed on     1 nodes
     R & G space division:  proc/nbgrp/npool/nimage =       4
     Reading input from /cloud/Code/python/qeforfit/examples/al/01/wd/configs/20/config_0005.in
Warning: card &IONS ignored
Warning: card ION_DYNAMICS = 'BFGS', ignored
Warning: card / ignored
Warning: card &CELL ignored
Warning: card CELL_DYNAMICS = 'BFGS', ignored
Warning: card CELL_FACTOR = 2.0, ignored
Warning: card PRESS = 0.0, ignored
Warning: card / ignored

     Current dimensions of program PWSCF are:
     Max number of different atomic species (ntypx) = 10
     Max number of k-points (npk) =  40000
     Max angular momentum in pseudopotentials (lmaxx) =  3
               file Al.pbe-nl-kjpaw_psl.1.0.0.UPF: wavefunction(s)  3S 3P renormalized

     Subspace diagonalization in iterative solution of the eigenvalue problem:
     a serial algorithm will be used


     Parallelization info
     --------------------
     sticks:   dense  smooth     PW     G-vecs:    dense   smooth      PW
     Min         927     927    257                42586    42586    6143
     Max         929     929    259                42589    42589    6144
     Sum        3713    3713   1033               170349   170349   24573



     bravais-lattice index     =            0
     lattice parameter (alat)  =      15.2741  a.u.
     unit-cell volume          =    3563.4251 (a.u.)^3
     number of atoms/cell      =           32
     number of atomic types    =            1
     number of electrons       =        96.00
     number of Kohn-Sham states=           58
     kinetic-energy cutoff     =      50.0000  Ry
     charge density cutoff     =     200.0000  Ry
     convergence threshold     =      1.0E-06
     mixing beta               =       0.1000
     number of iterations used =           10  TF        mixing
     Exchange-correlation      = SLA PW PBX PBC ( 1  4  3  4 0 0)

     celldm(1)=  15.274109  celldm(2)=   0.000000  celldm(3)=   0.000000
     celldm(4)=   0.000000  celldm(5)=   0.000000  celldm(6)=   0.000000

     crystal axes: (cart. coord. in units of alat)
               a(1) = (   1.000000   0.000000   0.000000 )  
               a(2) = (   0.000000   1.000000   0.000000 )  
               a(3) = (   0.000000   0.000000   1.000000 )  

     reciprocal axes: (cart. coord. in units 2 pi/alat)
               b(1) = (  1.000000  0.000000  0.000000 )  
               b(2) = (  0.000000  1.000000  0.000000 )  
               b(3) = (  0.000000  0.000000  1.000000 )  


     PseudoPot. # 1 for Al read from file:
     /opt/pp/Al.pbe-nl-kjpaw_psl.1.0.0.UPF
     MD5 check sum: 1b67f78b73fe58c7924490f171ce8a1e
     Pseudo is Projector augmented-wave + core cor, Zval =  3.0
     Generated using "atomic" code by A. Dal Corso v.6.3
     Shape of augmentation charge: PSQ
     Using radial grid of 1135 points,  4 beta functions with: 
                l(1) =   0
                l(2) =   0
                l(3) =   1
                l(4) =   1
     Q(r) pseudized with 0 coefficients 


     atomic species   valence    mass     pseudopotential
        Al             3.00    26.98200     Al( 1.00)

     No symmetry found



   Cartesian axes

     site n.     atom                  positions (alat units)
         1           Al  tau(   1) = (  -0.0100806  -0.0088996  -0.0072612  )
         2           Al  tau(   2) = (   0.2430625   0.2355157  -0.0071972  )
         3           Al  tau(   3) = (   0.2382344  -0.0083122   0.2491063  )
         4           Al  tau(   4) = (  -0.0097258   0.2469568   0.2459765  )
         5           Al  tau(   5) = (  -0.0020047  -0.0021078   0.4875024  )
         6           Al  tau(   6) = (   0.2441774   0.2361473   0.4909346  )
         7           Al  tau(   7) = (   0.2416120  -0.0048579   0.7376996  )
         8           Al  tau(   8) = (  -0.0076284   0.2440153   0.7467162  )
         9           Al  tau(   9) = (  -0.0025182   0.4938518  -0.0095980  )
        10           Al  tau(  10) = (   0.2447423   0.7457671   0.0021822  )
        11           Al  tau(  11) = (   0.2461278   0.4938813   0.2478622  )
        12           Al  tau(  12) = (  -0.0080926   0.7421092   0.2415434  )
        13           Al  tau(  13) = (  -0.0060822   0.4952059   0.4936059  )
        14           Al  tau(  14) = (   0.2398273   0.7426047   0.4872128  )
        15           Al  tau(  15) = (   0.2502563   0.4849375   0.7323243  )
        16           Al  tau(  16) = (  -0.0183481   0.7325902   0.7406423  )
        17           Al  tau(  17) = (   0.4965363  -0.0119767  -0.0102500  )
        18           Al  tau(  18) = (   0.7383802   0.2434677  -0.0156929  )
        19           Al  tau(  19) = (   0.7306270  -0.0118504   0.2429933  )
        20           Al  tau(  20) = (   0.4901385   0.2397526   0.2361230  )
        21           Al  tau(  21) = (   0.4886261  -0.0009656   0.4900666  )
        22           Al  tau(  22) = (   0.7427479   0.2323191   0.4894982  )
        23           Al  tau(  23) = (   0.7418347  -0.0110877   0.7415525  )
        24           Al  tau(  24) = (   0.4911530   0.2376539   0.7406896  )
        25           Al  tau(  25) = (   0.4867074   0.4940704  -0.0153033  )
        26           Al  tau(  26) = (   0.7344605   0.7435726  -0.0015056  )
        27           Al  tau(  27) = (   0.7436531   0.4852853   0.2393275  )
        28           Al  tau(  28) = (   0.4932911   0.7349778   0.2466922  )
        29           Al  tau(  29) = (   0.4817670   0.4937088   0.4919653  )
        30           Al  tau(  30) = (   0.7454749   0.7404766   0.4867653  )
        31           Al  tau(  31) = (   0.7393547   0.4910990   0.7447351  )
        32           Al  tau(  32) = (   0.4912316   0.7393963   0.7385305  )

     number of k points=    14  Marzari-Vanderbilt smearing, width (Ry)=  0.0200
                       cart. coord. in units 2pi/alat
        k(    1) = (   0.1666667   0.1666667   0.1666667), wk =   0.1481481
        k(    2) = (   0.1666667   0.1666667  -0.5000000), wk =   0.1481481
        k(    3) = (   0.1666667  -0.5000000  -0.5000000), wk =   0.1481481
        k(    4) = (  -0.5000000  -0.5000000  -0.5000000), wk =   0.0740741
        k(    5) = (  -0.1666667  -0.1666667   0.1666667), wk =   0.1481481
        k(    6) = (  -0.1666667   0.1666667  -0.1666667), wk =   0.1481481
        k(    7) = (   0.1666667  -0.1666667  -0.1666667), wk =   0.1481481
        k(    8) = (  -0.1666667   0.1666667   0.5000000), wk =   0.1481481
        k(    9) = (  -0.5000000  -0.1666667   0.1666667), wk =   0.1481481
        k(   10) = (   0.5000000  -0.1666667  -0.1666667), wk =   0.1481481
        k(   11) = (  -0.1666667  -0.5000000   0.1666667), wk =   0.1481481
        k(   12) = (  -0.1666667   0.5000000  -0.1666667), wk =   0.1481481
        k(   13) = (  -0.5000000   0.1666667   0.5000000), wk =   0.1481481
        k(   14) = (  -0.5000000   0.5000000   0.1666667), wk =   0.1481481

     Dense  grid:   170349 G-vectors     FFT dimensions: (  72,  72,  72)

     Estimated max dynamical RAM per process >     208.25 MB

     Estimated total dynamical RAM >     833.00 MB

     Initial potential from superposition of free atoms

     starting charge   95.92671, renormalised to   96.00000
     Starting wfcs are  128 randomized atomic wfcs
     Checking if some PAW data can be deallocated... 

     total cpu time spent up to now is       28.6 secs

     Self-consistent Calculation

     iteration #  1     ecut=    50.00 Ry     beta= 0.10
     Davidson diagonalization with overlap
     ethr =  1.00E-02,  avg # of iterations =  3.0

     Threshold (ethr) on eigenvalues was too large:
     Diagonalizing with lowered threshold

     Davidson diagonalization with overlap
     ethr =  2.15E-04,  avg # of iterations =  3.6

     total cpu time spent up to now is      111.2 secs

     total energy              =   -1264.09135119 Ry
     Harris-Foulkes estimate   =   -1264.09854720 Ry
     estimated scf accuracy    <       0.20715454 Ry

     iteration #  2     ecut=    50.00 Ry     beta= 0.10
     Davidson diagonalization with overlap
     ethr =  2.16E-04,  avg # of iterations =  1.0

     total cpu time spent up to now is      137.8 secs

     total energy              =   -1264.03393126 Ry
     Harris-Foulkes estimate   =   -1264.09230235 Ry
     estimated scf accuracy    <       0.18031522 Ry

     iteration #  3     ecut=    50.00 Ry     beta= 0.10
     Davidson diagonalization with overlap
     ethr =  1.88E-04,  avg # of iterations =  1.0

     total cpu time spent up to now is      164.5 secs

     total energy              =   -1264.04171576 Ry
     Harris-Foulkes estimate   =   -1264.04176318 Ry
     estimated scf accuracy    <       0.00104704 Ry

     iteration #  4     ecut=    50.00 Ry     beta= 0.10
     Davidson diagonalization with overlap
     c_bands:  2 eigenvalues not converged
     ethr =  1.09E-06,  avg # of iterations =  8.4

     total cpu time spent up to now is      235.7 secs

     total energy              =   -1264.04422699 Ry
     Harris-Foulkes estimate   =   -1264.04421154 Ry
     estimated scf accuracy    <       0.00390874 Ry

     iteration #  5     ecut=    50.00 Ry     beta= 0.10
     Davidson diagonalization with overlap
     c_bands:  1 eigenvalues not converged
     ethr =  1.09E-06,  avg # of iterations =  2.4

     total cpu time spent up to now is      262.9 secs

     total energy              =   -1264.04456446 Ry
     Harris-Foulkes estimate   =   -1264.04422889 Ry
     estimated scf accuracy    <       0.00397316 Ry

     iteration #  6     ecut=    50.00 Ry     beta= 0.10
     Davidson diagonalization with overlap
     c_bands:  1 eigenvalues not converged
     ethr =  1.09E-06,  avg # of iterations =  4.4

     total cpu time spent up to now is      291.2 secs

     total energy              =   -1264.04163153 Ry
     Harris-Foulkes estimate   =   -1264.04462041 Ry
     estimated scf accuracy    <       0.00666841 Ry

     iteration #  7     ecut=    50.00 Ry     beta= 0.10
     Davidson diagonalization with overlap
     ethr =  1.09E-06,  avg # of iterations =  6.6

     total cpu time spent up to now is      351.6 secs

     total energy              =   -1264.04228870 Ry
     Harris-Foulkes estimate   =   -1264.04430783 Ry
     estimated scf accuracy    <       0.00555736 Ry

     iteration #  8     ecut=    50.00 Ry     beta= 0.10
     Davidson diagonalization with overlap
     ethr =  1.09E-06,  avg # of iterations =  3.9

     total cpu time spent up to now is      405.2 secs

     total energy              =   -1264.04322647 Ry
     Harris-Foulkes estimate   =   -1264.04326999 Ry
     estimated scf accuracy    <       0.00024912 Ry

     iteration #  9     ecut=    50.00 Ry     beta= 0.10
     Davidson diagonalization with overlap
     ethr =  2.59E-07,  avg # of iterations =  2.7

     total cpu time spent up to now is      439.4 secs

     total energy              =   -1264.04328530 Ry
     Harris-Foulkes estimate   =   -1264.04327123 Ry
     estimated scf accuracy    <       0.00001559 Ry

     iteration # 10     ecut=    50.00 Ry     beta= 0.10
     Davidson diagonalization with overlap
     ethr =  1.62E-08,  avg # of iterations =  4.6

     total cpu time spent up to now is      500.2 secs

     total energy              =   -1264.04321916 Ry
     Harris-Foulkes estimate   =   -1264.04333116 Ry
     estimated scf accuracy    <       0.00041765 Ry

     iteration # 11     ecut=    50.00 Ry     beta= 0.10
     Davidson diagonalization with overlap
     ethr =  1.62E-08,  avg # of iterations =  4.9

     total cpu time spent up to now is      559.3 secs

     End of self-consistent calculation

          k = 0.1667 0.1667 0.1667 ( 21266 PWs)   bands (ev):

    -3.0577  -1.6290  -1.5620  -1.4787  -0.1764  -0.1475  -0.0912  -0.0523
    -0.0202   0.0758   1.2838   1.3243   1.3831   1.4198   1.4419   1.4640
     1.5217   2.7460   2.8161   2.8495   2.8800   2.9079   2.9717   4.1963
     4.2140   4.2372   4.3087   4.3327   4.3493   5.5431   5.5519   5.6359
     5.6531   5.6932   5.7179   5.7602   6.9433   6.9638   6.9833   7.0372
     7.0574   7.0813   7.1021   7.1289   7.1861   7.3814   7.3916   7.4216
     8.3942   8.4041   8.4522   8.4838   8.5186   8.5390   8.7409   8.7577
     8.7872   8.8328

          k = 0.1667 0.1667-0.5000 ( 21228 PWs)   bands (ev):

    -2.5920  -2.5211  -1.1087  -1.0881  -1.0392  -1.0005   0.3138   0.3729
     0.4187   0.4469   0.4876   0.5022   1.8400   1.8497   1.8793   1.8951
     1.9361   1.9518   3.2763   3.3044   3.3225   3.3369   3.3727   3.4063
     4.6357   4.6484   4.6820   4.7096   4.7380   4.7677   4.7718   4.8063
     4.8178   4.8506   6.0783   6.0960   6.1223   6.1790   6.2060   6.2187
     6.2337   6.2616   7.4731   7.4950   7.5401   7.5844   7.6153   7.6500
     7.8029   7.8326   7.8723   7.8970   8.9382   8.9448   8.9731   8.9990
     9.2854   9.2999

          k = 0.1667-0.5000-0.5000 ( 21296 PWs)   bands (ev):

    -2.1208  -2.0945  -2.0211  -1.9868  -0.6278  -0.5961  -0.5281  -0.4905
     0.8486   0.8805   0.9465   0.9838   2.2618   2.2975   2.3145   2.3430
     2.3732   2.4322   2.4544   2.4806   3.6993   3.7408   3.7617   3.7880
     3.8104   3.8742   3.8984   3.9164   5.0929   5.1279   5.1587   5.1899
     5.1995   5.2138   5.2378   5.2596   5.2819   5.3359   5.3612   5.3801
     6.6246   6.6419   6.6779   6.6982   8.0521   8.0728   8.1012   8.1227
     8.3359   8.3669   8.4228   8.4609   9.2469   9.2942   9.3229   9.3529
     9.3808   9.4316

          k =-0.5000-0.5000-0.5000 ( 21368 PWs)   bands (ev):

    -1.6893  -1.6653  -1.5920  -1.5724  -1.5383  -1.4904  -1.4764  -1.4059
     2.6393   2.6451   2.6848   2.7012   2.7367   2.7637   2.7688   2.7976
     2.8055   2.8218   2.8337   2.8456   2.8561   2.8702   2.8827   2.8901
     2.9105   2.9370   2.9563   2.9592   2.9836   3.0300   3.0666   3.1259
     6.9417   6.9688   6.9915   7.0080   7.0372   7.0576   7.0678   7.0752
     7.0779   7.0986   7.1324   7.1463   7.1656   7.1742   7.1808   7.1980
     7.2085   7.2345   7.2408   7.2484   7.2778   7.2915   7.3402   7.3447
    11.2305  11.2405

          k =-0.1667-0.1667 0.1667 ( 21266 PWs)   bands (ev):

    -3.0578  -1.6134  -1.5650  -1.4950  -0.1688  -0.1259  -0.0921  -0.0494
     0.0032   0.0220   1.2743   1.3607   1.3787   1.4019   1.4345   1.4669
     1.5223   2.7792   2.8175   2.8402   2.8703   2.9017   2.9634   4.2089
     4.2250   4.2335   4.3125   4.3246   4.3333   5.5160   5.6015   5.6153
     5.6477   5.6882   5.7316   5.7525   6.9598   6.9783   7.0075   7.0242
     7.0550   7.0665   7.0959   7.1250   7.1738   7.3841   7.3985   7.4141
     8.4015   8.4296   8.4600   8.4780   8.4947   8.5382   8.7344   8.7669
     8.7959   8.8251

          k =-0.1667 0.1667-0.1667 ( 21266 PWs)   bands (ev):

    -3.0577  -1.6274  -1.5589  -1.4850  -0.1776  -0.1379  -0.0816  -0.0424
    -0.0107   0.0374   1.2999   1.3254   1.3657   1.3981   1.4414   1.4823
     1.5272   2.7790   2.8089   2.8310   2.8832   2.9124   2.9570   4.1986
     4.2190   4.2403   4.3037   4.3287   4.3508   5.5441   5.5619   5.5984
     5.6348   5.6968   5.7482   5.7649   6.9663   6.9714   6.9965   7.0195
     7.0508   7.0850   7.1051   7.1291   7.1663   7.3714   7.4004   7.4191
     8.3955   8.4176   8.4355   8.5031   8.5129   8.5395   8.7307   8.7648
     8.7909   8.8301

          k = 0.1667-0.1667-0.1667 ( 21266 PWs)   bands (ev):

    -3.0578  -1.6182  -1.5738  -1.4785  -0.1824  -0.1250  -0.0863  -0.0734
    -0.0346   0.0936   1.3039   1.3214   1.3513   1.4059   1.4319   1.4615
     1.5616   2.7572   2.8107   2.8281   2.8725   2.9053   2.9969   4.1942
     4.2218   4.2431   4.3020   4.3267   4.3497   5.5403   5.5702   5.6054
     5.6443   5.6850   5.7510   5.7607   6.9315   6.9554   6.9935   7.0165
     7.0480   7.0757   7.1208   7.1449   7.1854   7.3799   7.4000   7.4339
     8.3769   8.4269   8.4427   8.4882   8.5024   8.5404   8.7447   8.7601
     8.7793   8.8285

          k =-0.1667 0.1667 0.5000 ( 21228 PWs)   bands (ev):

    -2.5920  -2.5211  -1.1224  -1.0717  -1.0522  -0.9889   0.3233   0.3624
     0.4065   0.4463   0.4808   0.5221   1.8117   1.8610   1.8820   1.8988
     1.9297   1.9693   3.2777   3.2950   3.3237   3.3481   3.3795   3.3952
     4.6182   4.6663   4.6922   4.7165   4.7271   4.7492   4.7585   4.7790
     4.8447   4.8766   6.0586   6.1153   6.1258   6.1753   6.1966   6.2247
     6.2363   6.2603   7.4652   7.5028   7.5395   7.5789   7.6127   7.6499
     7.7994   7.8420   7.8625   7.9115   8.9286   8.9556   8.9777   8.9984
     9.2771   9.3065

          k =-0.5000-0.1667 0.1667 ( 21228 PWs)   bands (ev):

    -2.5953  -2.5167  -1.1421  -1.0629  -1.0417  -0.9916   0.3315   0.3758
     0.4075   0.4462   0.4755   0.5067   1.8219   1.8504   1.8713   1.9058
     1.9448   1.9605   3.2699   3.2976   3.3289   3.3504   3.3688   3.3956
     4.6403   4.6491   4.7001   4.7136   4.7232   4.7604   4.7826   4.8056
     4.8104   4.8477   6.0415   6.1189   6.1467   6.1764   6.1992   6.2175
     6.2281   6.2655   7.4575   7.5086   7.5540   7.5779   7.6170   7.6459
     7.8045   7.8185   7.8645   7.9116   8.9256   8.9600   8.9634   9.0197
     9.2657   9.3122

          k = 0.5000-0.1667-0.1667 ( 21228 PWs)   bands (ev):

    -2.5953  -2.5167  -1.1497  -1.0617  -1.0437  -0.9798   0.2944   0.3705
     0.4011   0.4531   0.4669   0.5603   1.8270   1.8400   1.8729   1.8963
     1.9453   1.9654   3.2568   3.2834   3.3153   3.3531   3.3844   3.4246
     4.6155   4.6408   4.6866   4.6975   4.7210   4.7584   4.7671   4.8139
     4.8479   4.8913   6.0259   6.1191   6.1405   6.1692   6.2007   6.2166
     6.2418   6.2693   7.4580   7.4963   7.5211   7.5868   7.6238   7.6455
     7.7902   7.8434   7.8810   7.9152   8.9340   8.9571   8.9809   9.0041
     9.2663   9.3044

          k =-0.1667-0.5000 0.1667 ( 21228 PWs)   bands (ev):

    -2.5666  -2.5470  -1.1175  -1.1044  -1.0297  -0.9866   0.3429   0.3632
     0.4114   0.4214   0.4741   0.5418   1.8358   1.8610   1.8814   1.8931
     1.9159   1.9492   3.2673   3.2833   3.3293   3.3504   3.3807   3.4026
     4.6541   4.6692   4.6787   4.6989   4.7192   4.7422   4.7724   4.7801
     4.8564   4.8783   6.0643   6.0781   6.1514   6.1927   6.2083   6.2186
     6.2256   6.2464   7.4744   7.5116   7.5394   7.5493   7.6259   7.6376
     7.8339   7.8445   7.8610   7.8797   8.9574   8.9621   8.9714   8.9787
     9.2792   9.3183

          k =-0.1667 0.5000-0.1667 ( 21228 PWs)   bands (ev):

    -2.5665  -2.5470  -1.1262  -1.1109  -1.0118  -0.9878   0.3437   0.3690
     0.4131   0.4304   0.4732   0.5192   1.8302   1.8431   1.8812   1.9207
     1.9284   1.9421   3.2576   3.2743   3.3239   3.3469   3.3979   3.4120
     4.6459   4.6640   4.6792   4.7025   4.7211   4.7278   4.7884   4.8150
     4.8323   4.8625   6.0587   6.0808   6.1596   6.1820   6.2073   6.2151
     6.2294   6.2631   7.4876   7.5014   7.5419   7.5665   7.6229   7.6311
     7.8355   7.8426   7.8441   7.8814   8.9462   8.9532   8.9697   8.9947
     9.2910   9.3130

          k =-0.5000 0.1667 0.5000 ( 21296 PWs)   bands (ev):

    -2.1595  -2.0794  -2.0176  -1.9577  -0.6714  -0.5879  -0.5289  -0.4644
     0.8132   0.8857   0.9503   1.0101   2.2520   2.2720   2.3109   2.3757
     2.4026   2.4121   2.4489   2.5034   3.6891   3.7033   3.7463   3.8143
     3.8443   3.8472   3.8843   3.9387   5.0510   5.1307   5.1506   5.1699
     5.1971   5.2213   5.2593   5.2794   5.3058   5.3228   5.3498   5.4068
     6.6122   6.6442   6.6832   6.7101   8.0308   8.0671   8.1021   8.1341
     8.3037   8.3753   8.4207   8.4850   9.2469   9.2673   9.3096   9.3788
     9.3991   9.4169

          k =-0.5000 0.5000 0.1667 ( 21296 PWs)   bands (ev):

    -2.1170  -2.0831  -2.0198  -2.0059  -0.6191  -0.5867  -0.5195  -0.5127
     0.8514   0.8827   0.9533   0.9639   2.2680   2.3020   2.3168   2.3599
     2.3826   2.4259   2.4489   2.4652   3.7035   3.7432   3.7569   3.7978
     3.8177   3.8615   3.8935   3.9046   5.0945   5.1256   5.1705   5.1926
     5.2055   5.2134   5.2280   5.2666   5.2879   5.3275   5.3488   5.3706
     6.6342   6.6536   6.6837   6.6918   8.0494   8.0693   8.1056   8.1106
     8.3415   8.3716   8.4367   8.4403   9.2581   9.2973   9.3161   9.3588
     9.3890   9.4232

     the Fermi energy is     7.8066 ev

!    total energy              =   -1264.04326939 Ry
     Harris-Foulkes estimate   =   -1264.04326941 Ry
     estimated scf accuracy    <       0.00000019 Ry

     total all-electron energy =    -15540.612246 Ry

     The total energy is the sum of the following terms:

     one-electron contribution =     101.01096838 Ry
     hartree contribution      =       0.30378555 Ry
     xc contribution           =     -82.93337723 Ry
     ewald contribution        =    -172.73676689 Ry
     one-center paw contrib.   =   -1109.69205945 Ry
     smearing contrib. (-TS)   =       0.00418025 Ry

     convergence has been achieved in  11 iterations

     Forces acting on atoms (cartesian axes, Ry/au):

     atom    1 type  1   force =    -0.00020786   -0.00015594    0.00040491
     atom    2 type  1   force =    -0.00276671    0.00535020    0.00187905
     atom    3 type  1   force =     0.00658401   -0.00023480   -0.01584804
     atom    4 type  1   force =     0.00065011   -0.00430189   -0.00922582
     atom    5 type  1   force =    -0.01348977   -0.01085580    0.00935777
     atom    6 type  1   force =    -0.00378004    0.01370098   -0.00041751
     atom    7 type  1   force =    -0.00341882   -0.01404068    0.00940230
     atom    8 type  1   force =     0.00114553   -0.00212496   -0.00719747
     atom    9 type  1   force =     0.00043615   -0.00223203    0.00390782
     atom   10 type  1   force =    -0.00398731   -0.00133667   -0.01570284
     atom   11 type  1   force =    -0.00786992   -0.00769137   -0.01198656
     atom   12 type  1   force =    -0.00250533    0.00102491   -0.00206942
     atom   13 type  1   force =    -0.00441743   -0.00944290   -0.00144959
     atom   14 type  1   force =    -0.00059131    0.00430824    0.01209993
     atom   15 type  1   force =    -0.01645316    0.00696901    0.01430241
     atom   16 type  1   force =     0.01556786    0.01437069    0.00382844
     atom   17 type  1   force =    -0.01239964    0.00219603    0.00161780
     atom   18 type  1   force =     0.00496775   -0.00186794    0.01189442
     atom   19 type  1   force =     0.01381454    0.00580093   -0.00196366
     atom   20 type  1   force =     0.00202755    0.00557253    0.00184047
     atom   21 type  1   force =     0.00559446   -0.01570603    0.00293282
     atom   22 type  1   force =    -0.00295130    0.01499866    0.00357625
     atom   23 type  1   force =     0.00331470   -0.00259872   -0.00545262
     atom   24 type  1   force =     0.00352838    0.00359876   -0.00217025
     atom   25 type  1   force =     0.00213558   -0.00482057    0.00954344
     atom   26 type  1   force =     0.00928238   -0.00683477   -0.00718032
     atom   27 type  1   force =    -0.00475185    0.00137604    0.00282847
     atom   28 type  1   force =    -0.00228534    0.00658755   -0.00203151
     atom   29 type  1   force =     0.02449873   -0.00919021   -0.00353362
     atom   30 type  1   force =    -0.00705215    0.00104120    0.00675441
     atom   31 type  1   force =    -0.00259165   -0.00172497   -0.00929878
     atom   32 type  1   force =    -0.00202812    0.00826454   -0.00064269

     Total force =     0.075941     Total SCF correction =     0.000385


     Computing stress (Cartesian axis) and pressure

          total   stress  (Ry/bohr**3)                   (kbar)     P=    1.83
   0.00001345  -0.00000098  -0.00000129          1.98     -0.14     -0.19
  -0.00000098   0.00001267   0.00000090         -0.14      1.86      0.13
  -0.00000129   0.00000090   0.00001126         -0.19      0.13      1.66


     Writing output data file cZhyHXFlruwdOrxO.save/

     init_run     :     27.92s CPU     28.21s WALL (       1 calls)
     electrons    :    521.82s CPU    530.69s WALL (       1 calls)
     forces       :     12.55s CPU     12.61s WALL (       1 calls)
     stress       :     15.89s CPU     15.90s WALL (       1 calls)

     Called by init_run:
     wfcinit      :     27.29s CPU     27.55s WALL (       1 calls)
     potinit      :      0.31s CPU      0.32s WALL (       1 calls)
     hinit0       :      0.15s CPU      0.15s WALL (       1 calls)

     Called by electrons:
     c_bands      :    473.02s CPU    481.04s WALL (      12 calls)
     sum_band     :     43.53s CPU     44.21s WALL (      12 calls)
     v_of_rho     :      0.61s CPU      0.62s WALL (      12 calls)
     newd         :      1.75s CPU      1.79s WALL (      12 calls)
     PAW_pot      :      3.17s CPU      3.17s WALL (      12 calls)
     mix_rho      :      0.14s CPU      0.15s WALL (      12 calls)

     Called by c_bands:
     init_us_2    :      2.42s CPU      2.49s WALL (     378 calls)
     cegterg      :    468.53s CPU    474.57s WALL (     168 calls)

     Called by sum_band:
     sum_band:bec :      0.04s CPU      0.04s WALL (     168 calls)
     addusdens    :      1.58s CPU      1.80s WALL (      12 calls)

     Called by *egterg:
     h_psi        :    257.54s CPU    261.54s WALL (     833 calls)
     s_psi        :    100.47s CPU    100.97s WALL (     833 calls)
     g_psi        :      0.39s CPU      0.39s WALL (     651 calls)
     cdiaghg      :     10.26s CPU     10.29s WALL (     805 calls)

     Called by h_psi:
     h_psi:pot    :    256.91s CPU    260.47s WALL (     833 calls)
     h_psi:calbec :    105.89s CPU    106.28s WALL (     833 calls)
     vloc_psi     :     47.89s CPU     50.89s WALL (     833 calls)
     add_vuspsi   :    103.11s CPU    103.29s WALL (     833 calls)

     General routines
     calbec       :    153.41s CPU    153.88s WALL (    1071 calls)
     fft          :      0.34s CPU      0.35s WALL (     158 calls)
     ffts         :      0.02s CPU      0.02s WALL (      12 calls)
     fftw         :     50.84s CPU     53.95s WALL (   72540 calls)

     Parallel routines
     fft_scatt_xy :      6.15s CPU      6.55s WALL (   72710 calls)
     fft_scatt_yz :     16.38s CPU     17.40s WALL (   72710 calls)

     PWSCF        :   9m38.64s CPU   9m48.11s WALL


   This run was terminated on:   9:37:39  19Jul2021            

=------------------------------------------------------------------------------=
   JOB DONE.
=------------------------------------------------------------------------------=
