
     Program PWSCF v.6.4.1 starts on 18Mar2020 at 16:49:46 

     This program is part of the open-source Quantum ESPRESSO suite
     for quantum simulation of materials; please cite
         "P. Giannozzi et al., J. Phys.:Condens. Matter 21 395502 (2009);
         "P. Giannozzi et al., J. Phys.:Condens. Matter 29 465901 (2017);
          URL http://www.quantum-espresso.org", 
     in publications or presentations arising from this work. More details at
     http://www.quantum-espresso.org/quote

     Parallel version (MPI), running on     1 processors

     MPI processes distributed on     1 nodes
     Reading input from wd/configs/1/config_0006.in
Warning: card &IONS ignored
Warning: card ION_DYNAMICS = 'BFGS', ignored
Warning: card / ignored
Warning: card &CELL ignored
Warning: card CELL_DYNAMICS = 'BFGS', ignored
Warning: card CELL_FACTOR = 2.0, ignored
Warning: card PRESS = 0.0, ignored
Warning: card / ignored

     Current dimensions of program PWSCF are:
     Max number of different atomic species (ntypx) = 10
     Max number of k-points (npk) =  40000
     Max angular momentum in pseudopotentials (lmaxx) =  3
               file Al.pbe-nl-kjpaw_psl.1.0.0.UPF: wavefunction(s)  3S 3P renormalized

     Subspace diagonalization in iterative solution of the eigenvalue problem:
     a serial algorithm will be used


     G-vector sticks info
     --------------------
     sticks:   dense  smooth     PW     G-vecs:    dense   smooth      PW
     Sum         593     481    149                11067     7809    1419



     bravais-lattice index     =            0
     lattice parameter (alat)  =       7.7176  a.u.
     unit-cell volume          =     459.6709 (a.u.)^3
     number of atoms/cell      =           33
     number of atomic types    =            1
     number of electrons       =        99.00
     number of Kohn-Sham states=           60
     kinetic-energy cutoff     =      25.0000  Ry
     charge density cutoff     =     126.0000  Ry
     convergence threshold     =      1.0E-06
     mixing beta               =       0.1000
     number of iterations used =           10  TF        mixing
     Exchange-correlation      = SLA PW PBX PBC ( 1  4  3  4 0 0)

     celldm(1)=   7.717601  celldm(2)=   0.000000  celldm(3)=   0.000000
     celldm(4)=   0.000000  celldm(5)=   0.000000  celldm(6)=   0.000000

     crystal axes: (cart. coord. in units of alat)
               a(1) = (   1.000000   0.000000   0.000000 )  
               a(2) = (   0.000000   1.000000   0.000000 )  
               a(3) = (   0.000000   0.000000   1.000000 )  

     reciprocal axes: (cart. coord. in units 2 pi/alat)
               b(1) = (  1.000000  0.000000  0.000000 )  
               b(2) = (  0.000000  1.000000  0.000000 )  
               b(3) = (  0.000000  0.000000  1.000000 )  


     PseudoPot. # 1 for Al read from file:
     /opt/pp/Al.pbe-nl-kjpaw_psl.1.0.0.UPF
     MD5 check sum: 1b67f78b73fe58c7924490f171ce8a1e
     Pseudo is Projector augmented-wave + core cor, Zval =  3.0
     Generated using "atomic" code by A. Dal Corso v.6.3
     Shape of augmentation charge: PSQ
     Using radial grid of 1135 points,  4 beta functions with: 
                l(1) =   0
                l(2) =   0
                l(3) =   1
                l(4) =   1
     Q(r) pseudized with 0 coefficients 


     atomic species   valence    mass     pseudopotential
        Al             3.00    26.98200     Al( 1.00)

     No symmetry found



   Cartesian axes

     site n.     atom                  positions (alat units)
         1           Al  tau(   1) = (  -0.0014251  -0.0012581  -0.0010265  )
         2           Al  tau(   2) = (   0.2490193   0.2479524  -0.0010174  )
         3           Al  tau(   3) = (   0.2483367  -0.0011751   0.2498737  )
         4           Al  tau(   4) = (  -0.0013749   0.2495698   0.2494312  )
         5           Al  tau(   5) = (  -0.0002834  -0.0002980   0.4982333  )
         6           Al  tau(   6) = (   0.2491769   0.2480417   0.4987185  )
         7           Al  tau(   7) = (   0.2488142  -0.0006867   0.7482611  )
         8           Al  tau(   8) = (  -0.0010784   0.2491540   0.7495358  )
         9           Al  tau(   9) = (  -0.0003560   0.4991309  -0.0013568  )
        10           Al  tau(  10) = (   0.2492567   0.7494016   0.0003085  )
        11           Al  tau(  11) = (   0.2494526   0.4991350   0.2496978  )
        12           Al  tau(  12) = (  -0.0011440   0.7488845   0.2488045  )
        13           Al  tau(  13) = (  -0.0008598   0.4993223   0.4990961  )
        14           Al  tau(  14) = (   0.2485619   0.7489545   0.4981923  )
        15           Al  tau(  15) = (   0.2500362   0.4978707   0.7475013  )
        16           Al  tau(  16) = (  -0.0025938   0.7475388   0.7486771  )
        17           Al  tau(  17) = (   0.4995103  -0.0016931  -0.0014490  )
        18           Al  tau(  18) = (   0.7483574   0.2490766  -0.0022184  )
        19           Al  tau(  19) = (   0.7472613  -0.0016752   0.2490095  )
        20           Al  tau(  20) = (   0.4986059   0.2485514   0.2480383  )
        21           Al  tau(  21) = (   0.2483921   0.2498635   0.2485958  )
        22           Al  tau(  22) = (   0.4989748  -0.0024995   0.4985154  )
        23           Al  tau(  23) = (   0.7488457   0.2484326   0.4988058  )
        24           Al  tau(  24) = (   0.7487493  -0.0017453   0.7486838  )
        25           Al  tau(  25) = (   0.4981209   0.2491618   0.7478366  )
        26           Al  tau(  26) = (   0.4978032   0.4990914  -0.0002128  )
        27           Al  tau(  27) = (   0.7491028   0.7479198  -0.0015087  )
        28           Al  tau(  28) = (   0.7490516   0.4978764   0.2495324  )
        29           Al  tau(  29) = (   0.4974225   0.7491106   0.2488642  )
        30           Al  tau(  30) = (   0.4993603   0.4986537   0.4981291  )
        31           Al  tau(  31) = (   0.7484951   0.7487417   0.4992557  )
        32           Al  tau(  32) = (   0.7487604   0.4985010   0.7483786  )
        33           Al  tau(  33) = (   0.4981292   0.7477774   0.7486600  )

     number of k points=    14  Marzari-Vanderbilt smearing, width (Ry)=  0.0200
                       cart. coord. in units 2pi/alat
        k(    1) = (   0.1666667   0.1666667   0.1666667), wk =   0.1481481
        k(    2) = (   0.1666667   0.1666667  -0.5000000), wk =   0.1481481
        k(    3) = (   0.1666667  -0.5000000  -0.5000000), wk =   0.1481481
        k(    4) = (  -0.5000000  -0.5000000  -0.5000000), wk =   0.0740741
        k(    5) = (  -0.1666667  -0.1666667   0.1666667), wk =   0.1481481
        k(    6) = (  -0.1666667   0.1666667  -0.1666667), wk =   0.1481481
        k(    7) = (   0.1666667  -0.1666667  -0.1666667), wk =   0.1481481
        k(    8) = (  -0.1666667   0.1666667   0.5000000), wk =   0.1481481
        k(    9) = (  -0.5000000  -0.1666667   0.1666667), wk =   0.1481481
        k(   10) = (   0.5000000  -0.1666667  -0.1666667), wk =   0.1481481
        k(   11) = (  -0.1666667  -0.5000000   0.1666667), wk =   0.1481481
        k(   12) = (  -0.1666667   0.5000000  -0.1666667), wk =   0.1481481
        k(   13) = (  -0.5000000   0.1666667   0.5000000), wk =   0.1481481
        k(   14) = (  -0.5000000   0.5000000   0.1666667), wk =   0.1481481

     Dense  grid:    11067 G-vectors     FFT dimensions: (  27,  27,  27)

     Smooth grid:     7809 G-vectors     FFT dimensions: (  25,  25,  25)

     Estimated max dynamical RAM per process >      47.90 MB

     Initial potential from superposition of free atoms

     starting charge   98.92442, renormalised to   99.00000
     Starting wfcs are  132 randomized atomic wfcs
     Checking if some PAW data can be deallocated... 

     total cpu time spent up to now is        3.9 secs

     Self-consistent Calculation

     iteration #  1     ecut=    25.00 Ry     beta= 0.10
     Davidson diagonalization with overlap
     ethr =  1.00E-02,  avg # of iterations =  4.8

     negative rho (up, down):  3.115E-01 0.000E+00

     total cpu time spent up to now is       11.6 secs

     total energy              =   -1131.54994325 Ry
     Harris-Foulkes estimate   =   -1131.55136946 Ry
     estimated scf accuracy    <      68.68694218 Ry

     iteration #  2     ecut=    25.00 Ry     beta= 0.10
     Davidson diagonalization with overlap
     ethr =  1.00E-02,  avg # of iterations =  2.6

     negative rho (up, down):  5.885E-04 0.000E+00

     total cpu time spent up to now is       15.2 secs

     total energy              =   -1130.04590866 Ry
     Harris-Foulkes estimate   =   -1132.45172261 Ry
     estimated scf accuracy    <      92.12740987 Ry

     iteration #  3     ecut=    25.00 Ry     beta= 0.10
     Davidson diagonalization with overlap
     ethr =  1.00E-02,  avg # of iterations =  3.0

     negative rho (up, down):  5.891E-02 0.000E+00

     total cpu time spent up to now is       18.9 secs

     total energy              =   -1131.44755444 Ry
     Harris-Foulkes estimate   =   -1132.47116490 Ry
     estimated scf accuracy    <      56.02834982 Ry

     iteration #  4     ecut=    25.00 Ry     beta= 0.10
     Davidson diagonalization with overlap
     ethr =  1.00E-02,  avg # of iterations =  2.1

     negative rho (up, down):  8.682E-04 0.000E+00

     total cpu time spent up to now is       22.5 secs

     total energy              =   -1129.09493775 Ry
     Harris-Foulkes estimate   =   -1132.07428743 Ry
     estimated scf accuracy    <     122.90520745 Ry

     iteration #  5     ecut=    25.00 Ry     beta= 0.10
     Davidson diagonalization with overlap
     ethr =  1.00E-02,  avg # of iterations =  2.0

     negative rho (up, down):  1.004E+00 0.000E+00

     total cpu time spent up to now is       26.0 secs

     total energy              =   -1133.56833883 Ry
     Harris-Foulkes estimate   =   -1129.49496889 Ry
     estimated scf accuracy    <      72.38114047 Ry

     iteration #  6     ecut=    25.00 Ry     beta= 0.10
     Davidson diagonalization with overlap
     ethr =  1.00E-02,  avg # of iterations =  3.0

     negative rho (up, down):  5.303E-01 0.000E+00

     total cpu time spent up to now is       29.7 secs

     total energy              =   -1131.82434220 Ry
     Harris-Foulkes estimate   =   -1136.68997269 Ry
     estimated scf accuracy    <     112.60929257 Ry

     iteration #  7     ecut=    25.00 Ry     beta= 0.10
     Davidson diagonalization with overlap
     ethr =  1.00E-02,  avg # of iterations =  2.0

     negative rho (up, down):  1.118E+00 0.000E+00

     total cpu time spent up to now is       33.2 secs

     total energy              =   -1133.21292391 Ry
     Harris-Foulkes estimate   =   -1132.21190539 Ry
     estimated scf accuracy    <     119.58076327 Ry

     iteration #  8     ecut=    25.00 Ry     beta= 0.10
     Davidson diagonalization with overlap
     ethr =  1.00E-02,  avg # of iterations =  2.0

     negative rho (up, down):  4.682E-01 0.000E+00

     total cpu time spent up to now is       36.7 secs

     total energy              =   -1108.09920138 Ry
     Harris-Foulkes estimate   =   -1133.79893292 Ry
     estimated scf accuracy    <      90.44389843 Ry

     iteration #  9     ecut=    25.00 Ry     beta= 0.10
     Davidson diagonalization with overlap
     ethr =  1.00E-02,  avg # of iterations =  4.1

     negative rho (up, down):  3.388E-01 0.000E+00

     total cpu time spent up to now is       40.6 secs

     total energy              =   -1122.00039481 Ry
     Harris-Foulkes estimate   =   -1121.95205472 Ry
     estimated scf accuracy    <       2.95144696 Ry

     iteration # 10     ecut=    25.00 Ry     beta= 0.10
     Davidson diagonalization with overlap
     ethr =  2.98E-03,  avg # of iterations =  4.9

     negative rho (up, down):  2.846E-01 0.000E+00

     total cpu time spent up to now is       44.8 secs

     total energy              =   -1122.79586289 Ry
     Harris-Foulkes estimate   =   -1122.31932729 Ry
     estimated scf accuracy    <       1.86094874 Ry

     iteration # 11     ecut=    25.00 Ry     beta= 0.10
     Davidson diagonalization with overlap
     ethr =  1.88E-03,  avg # of iterations =  3.1

     negative rho (up, down):  3.840E-01 0.000E+00

     total cpu time spent up to now is       48.6 secs

     total energy              =   -1122.55126639 Ry
     Harris-Foulkes estimate   =   -1122.95197603 Ry
     estimated scf accuracy    <       2.63761963 Ry

     iteration # 12     ecut=    25.00 Ry     beta= 0.10
     Davidson diagonalization with overlap
     ethr =  1.88E-03,  avg # of iterations =  2.2

     negative rho (up, down):  3.851E-01 0.000E+00

     total cpu time spent up to now is       52.3 secs

     total energy              =   -1122.45386433 Ry
     Harris-Foulkes estimate   =   -1122.74549220 Ry
     estimated scf accuracy    <       1.83832836 Ry

     iteration # 13     ecut=    25.00 Ry     beta= 0.10
     Davidson diagonalization with overlap
     ethr =  1.86E-03,  avg # of iterations =  2.0

     negative rho (up, down):  4.532E-01 0.000E+00

     total cpu time spent up to now is       55.8 secs

     total energy              =   -1122.19933072 Ry
     Harris-Foulkes estimate   =   -1122.54892817 Ry
     estimated scf accuracy    <       1.52752545 Ry

     iteration # 14     ecut=    25.00 Ry     beta= 0.10
     Davidson diagonalization with overlap
     ethr =  1.54E-03,  avg # of iterations =  2.1

     negative rho (up, down):  5.731E-01 0.000E+00

     total cpu time spent up to now is       59.4 secs

     total energy              =   -1122.40812396 Ry
     Harris-Foulkes estimate   =   -1122.28170095 Ry
     estimated scf accuracy    <       1.04821881 Ry

     iteration # 15     ecut=    25.00 Ry     beta= 0.10
     Davidson diagonalization with overlap
     ethr =  1.06E-03,  avg # of iterations =  2.1

     negative rho (up, down):  8.751E-01 0.000E+00

     total cpu time spent up to now is       63.0 secs

     total energy              =   -1122.30323631 Ry
     Harris-Foulkes estimate   =   -1122.44513705 Ry
     estimated scf accuracy    <       1.35912185 Ry

     iteration # 16     ecut=    25.00 Ry     beta= 0.10
     Davidson diagonalization with overlap
     ethr =  1.06E-03,  avg # of iterations =  1.8

     negative rho (up, down):  8.539E-01 0.000E+00

     total cpu time spent up to now is       66.5 secs

     total energy              =   -1122.40681234 Ry
     Harris-Foulkes estimate   =   -1122.33775425 Ry
     estimated scf accuracy    <       1.29919108 Ry

     iteration # 17     ecut=    25.00 Ry     beta= 0.10
     Davidson diagonalization with overlap
     ethr =  1.06E-03,  avg # of iterations =  1.0

     negative rho (up, down):  9.821E-01 0.000E+00

     total cpu time spent up to now is       69.8 secs

     total energy              =   -1122.55804068 Ry
     Harris-Foulkes estimate   =   -1122.41845315 Ry
     estimated scf accuracy    <       1.09117058 Ry

     iteration # 18     ecut=    25.00 Ry     beta= 0.10
     Davidson diagonalization with overlap
     ethr =  1.06E-03,  avg # of iterations =  4.9

     negative rho (up, down):  1.055E+00 0.000E+00

     total cpu time spent up to now is       74.3 secs

     total energy              =   -1122.79486216 Ry
     Harris-Foulkes estimate   =   -1122.81122722 Ry
     estimated scf accuracy    <      13.59859627 Ry

     iteration # 19     ecut=    25.00 Ry     beta= 0.10
     Davidson diagonalization with overlap
     ethr =  1.06E-03,  avg # of iterations =  1.0

     negative rho (up, down):  1.181E+00 0.000E+00

     total cpu time spent up to now is       77.7 secs

     total energy              =   -1123.58411553 Ry
     Harris-Foulkes estimate   =   -1122.80024865 Ry
     estimated scf accuracy    <      12.95069819 Ry

     iteration # 20     ecut=    25.00 Ry     beta= 0.10
     Davidson diagonalization with overlap
     ethr =  1.06E-03,  avg # of iterations =  4.1

     negative rho (up, down):  1.219E+00 0.000E+00

     total cpu time spent up to now is       82.4 secs

     total energy              =   -1122.27233111 Ry
     Harris-Foulkes estimate   =   -1125.72313371 Ry
     estimated scf accuracy    <     135.99777105 Ry

     iteration # 21     ecut=    25.00 Ry     beta= 0.10
     Davidson diagonalization with overlap
     ethr =  1.06E-03,  avg # of iterations =  4.1

     negative rho (up, down):  1.179E+00 0.000E+00

     total cpu time spent up to now is       86.8 secs

     total energy              =   -1122.97515817 Ry
     Harris-Foulkes estimate   =   -1123.06794984 Ry
     estimated scf accuracy    <      45.88814766 Ry

     iteration # 22     ecut=    25.00 Ry     beta= 0.10
     Davidson diagonalization with overlap
     ethr =  1.06E-03,  avg # of iterations =  2.0

     negative rho (up, down):  6.685E-01 0.000E+00

     total cpu time spent up to now is       90.3 secs

     total energy              =   -1123.00079317 Ry
     Harris-Foulkes estimate   =   -1123.00199166 Ry
     estimated scf accuracy    <      37.83591918 Ry

     iteration # 23     ecut=    25.00 Ry     beta= 0.10
     Davidson diagonalization with overlap
     ethr =  1.06E-03,  avg # of iterations =  2.6

     negative rho (up, down):  1.414E+00 0.000E+00

     total cpu time spent up to now is       94.2 secs

     total energy              =   -1124.14397899 Ry
     Harris-Foulkes estimate   =   -1123.16339630 Ry
     estimated scf accuracy    <      45.24981655 Ry

     iteration # 24     ecut=    25.00 Ry     beta= 0.10
     Davidson diagonalization with overlap
     ethr =  1.06E-03,  avg # of iterations =  3.4

     negative rho (up, down):  1.307E+00 0.000E+00

     total cpu time spent up to now is       98.6 secs

     total energy              =   -1122.88801929 Ry
     Harris-Foulkes estimate   =   -1125.56704386 Ry
     estimated scf accuracy    <     139.81967873 Ry

     iteration # 25     ecut=    25.00 Ry     beta= 0.10
     Davidson diagonalization with overlap
     ethr =  1.06E-03,  avg # of iterations =  3.4

     negative rho (up, down):  1.288E+00 0.000E+00

     total cpu time spent up to now is      102.8 secs

     total energy              =   -1123.78569899 Ry
     Harris-Foulkes estimate   =   -1123.56828975 Ry
     estimated scf accuracy    <      92.65508078 Ry

     iteration # 26     ecut=    25.00 Ry     beta= 0.10
     Davidson diagonalization with overlap
     ethr =  1.06E-03,  avg # of iterations =  2.0

     negative rho (up, down):  1.167E+00 0.000E+00

     total cpu time spent up to now is      106.4 secs

     total energy              =   -1122.93302065 Ry
     Harris-Foulkes estimate   =   -1123.85192329 Ry
     estimated scf accuracy    <     107.31606737 Ry

     iteration # 27     ecut=    25.00 Ry     beta= 0.10
     Davidson diagonalization with overlap
     ethr =  1.06E-03,  avg # of iterations =  3.1

     negative rho (up, down):  8.947E-01 0.000E+00

     total cpu time spent up to now is      110.3 secs

     total energy              =   -1123.34706131 Ry
     Harris-Foulkes estimate   =   -1123.09783433 Ry
     estimated scf accuracy    <      46.21738696 Ry

     iteration # 28     ecut=    25.00 Ry     beta= 0.10
     Davidson diagonalization with overlap
     ethr =  1.06E-03,  avg # of iterations =  2.9

     negative rho (up, down):  9.176E-01 0.000E+00

     total cpu time spent up to now is      114.1 secs

     total energy              =   -1122.06579296 Ry
     Harris-Foulkes estimate   =   -1123.48021705 Ry
     estimated scf accuracy    <      80.23651872 Ry

     iteration # 29     ecut=    25.00 Ry     beta= 0.10
     Davidson diagonalization with overlap
     ethr =  1.06E-03,  avg # of iterations =  3.9

     negative rho (up, down):  1.286E+00 0.000E+00

     total cpu time spent up to now is      118.5 secs

     total energy              =   -1122.33981503 Ry
     Harris-Foulkes estimate   =   -1122.83144182 Ry
     estimated scf accuracy    <      15.17099723 Ry

     iteration # 30     ecut=    25.00 Ry     beta= 0.10
     Davidson diagonalization with overlap
     ethr =  1.06E-03,  avg # of iterations =  3.1

     negative rho (up, down):  1.029E+00 0.000E+00

     total cpu time spent up to now is      122.4 secs

     total energy              =   -1122.43434773 Ry
     Harris-Foulkes estimate   =   -1122.52469594 Ry
     estimated scf accuracy    <       1.92740835 Ry

     iteration # 31     ecut=    25.00 Ry     beta= 0.10
     Davidson diagonalization with overlap
     ethr =  1.06E-03,  avg # of iterations =  2.1

     negative rho (up, down):  7.369E-01 0.000E+00

     total cpu time spent up to now is      126.0 secs

     total energy              =   -1122.41935055 Ry
     Harris-Foulkes estimate   =   -1122.48039618 Ry
     estimated scf accuracy    <       1.20219872 Ry

     iteration # 32     ecut=    25.00 Ry     beta= 0.10
     Davidson diagonalization with overlap
     ethr =  1.06E-03,  avg # of iterations =  2.0

     negative rho (up, down):  7.118E-01 0.000E+00

     total cpu time spent up to now is      129.5 secs

     total energy              =   -1122.36209332 Ry
     Harris-Foulkes estimate   =   -1122.46757272 Ry
     estimated scf accuracy    <       0.94792256 Ry

     iteration # 33     ecut=    25.00 Ry     beta= 0.10
     Davidson diagonalization with overlap
     ethr =  9.57E-04,  avg # of iterations =  1.0

     negative rho (up, down):  8.668E-01 0.000E+00

     total cpu time spent up to now is      132.9 secs

     total energy              =   -1122.55085150 Ry
     Harris-Foulkes estimate   =   -1122.36753657 Ry
     estimated scf accuracy    <       1.08211053 Ry

     iteration # 34     ecut=    25.00 Ry     beta= 0.10
     Davidson diagonalization with overlap
     ethr =  9.57E-04,  avg # of iterations =  3.0

     negative rho (up, down):  9.831E-01 0.000E+00

     total cpu time spent up to now is      136.7 secs

     total energy              =   -1122.69660077 Ry
     Harris-Foulkes estimate   =   -1122.62323436 Ry
     estimated scf accuracy    <       1.55462950 Ry

     iteration # 35     ecut=    25.00 Ry     beta= 0.10
     Davidson diagonalization with overlap
     ethr =  9.57E-04,  avg # of iterations =  4.2

     negative rho (up, down):  1.292E+00 0.000E+00

     total cpu time spent up to now is      140.8 secs

     total energy              =   -1122.94622398 Ry
     Harris-Foulkes estimate   =   -1122.82902759 Ry
     estimated scf accuracy    <      13.52152771 Ry

     iteration # 36     ecut=    25.00 Ry     beta= 0.10
     Davidson diagonalization with overlap
     ethr =  9.57E-04,  avg # of iterations =  4.0

     negative rho (up, down):  1.264E+00 0.000E+00

     total cpu time spent up to now is      145.0 secs

     total energy              =   -1123.10208379 Ry
     Harris-Foulkes estimate   =   -1123.23120813 Ry
     estimated scf accuracy    <      72.23828795 Ry

     iteration # 37     ecut=    25.00 Ry     beta= 0.10
     Davidson diagonalization with overlap
     ethr =  9.57E-04,  avg # of iterations =  1.7

     negative rho (up, down):  1.166E+00 0.000E+00

     total cpu time spent up to now is      148.5 secs

     total energy              =   -1123.19898420 Ry
     Harris-Foulkes estimate   =   -1123.11452672 Ry
     estimated scf accuracy    <      61.11232669 Ry

     iteration # 38     ecut=    25.00 Ry     beta= 0.10
     Davidson diagonalization with overlap
     ethr =  9.57E-04,  avg # of iterations =  2.0

     negative rho (up, down):  1.063E+00 0.000E+00

     total cpu time spent up to now is      152.0 secs

     total energy              =   -1122.40926717 Ry
     Harris-Foulkes estimate   =   -1123.24017734 Ry
     estimated scf accuracy    <      70.70438103 Ry

     iteration # 39     ecut=    25.00 Ry     beta= 0.10
     Davidson diagonalization with overlap
     ethr =  9.57E-04,  avg # of iterations =  3.9

     negative rho (up, down):  1.123E+00 0.000E+00

     total cpu time spent up to now is      156.0 secs

     total energy              =   -1122.56222371 Ry
     Harris-Foulkes estimate   =   -1122.75924711 Ry
     estimated scf accuracy    <       8.51556206 Ry

     iteration # 40     ecut=    25.00 Ry     beta= 0.10
     Davidson diagonalization with overlap
     ethr =  9.57E-04,  avg # of iterations =  3.1

     negative rho (up, down):  1.363E+00 0.000E+00

     total cpu time spent up to now is      159.8 secs

     total energy              =   -1122.77213305 Ry
     Harris-Foulkes estimate   =   -1122.65120367 Ry
     estimated scf accuracy    <       1.51898412 Ry

     iteration # 41     ecut=    25.00 Ry     beta= 0.10
     Davidson diagonalization with overlap
     ethr =  9.57E-04,  avg # of iterations =  4.0

     negative rho (up, down):  1.332E+00 0.000E+00

     total cpu time spent up to now is      164.1 secs

     total energy              =   -1123.04915343 Ry
     Harris-Foulkes estimate   =   -1123.13523644 Ry
     estimated scf accuracy    <      56.17229327 Ry

     iteration # 42     ecut=    25.00 Ry     beta= 0.10
     Davidson diagonalization with overlap
     ethr =  9.57E-04,  avg # of iterations =  1.6

     negative rho (up, down):  1.420E+00 0.000E+00

     total cpu time spent up to now is      167.6 secs

     total energy              =   -1123.12459237 Ry
     Harris-Foulkes estimate   =   -1123.05876856 Ry
     estimated scf accuracy    <      47.66083129 Ry

     iteration # 43     ecut=    25.00 Ry     beta= 0.10
     Davidson diagonalization with overlap
     ethr =  9.57E-04,  avg # of iterations =  2.7

     negative rho (up, down):  1.508E+00 0.000E+00

     total cpu time spent up to now is      171.4 secs

     total energy              =   -1122.78787112 Ry
     Harris-Foulkes estimate   =   -1123.24846126 Ry
     estimated scf accuracy    <      67.32258328 Ry

     iteration # 44     ecut=    25.00 Ry     beta= 0.10
     Davidson diagonalization with overlap
     ethr =  9.57E-04,  avg # of iterations =  2.9

     negative rho (up, down):  1.617E+00 0.000E+00

     total cpu time spent up to now is      175.3 secs

     total energy              =   -1122.90081560 Ry
     Harris-Foulkes estimate   =   -1123.02844928 Ry
     estimated scf accuracy    <      43.68520364 Ry

     iteration # 45     ecut=    25.00 Ry     beta= 0.10
     Davidson diagonalization with overlap
     ethr =  9.57E-04,  avg # of iterations =  2.1

     negative rho (up, down):  1.503E+00 0.000E+00

     total cpu time spent up to now is      178.9 secs

     total energy              =   -1122.62825332 Ry
     Harris-Foulkes estimate   =   -1122.95293431 Ry
     estimated scf accuracy    <      35.00210419 Ry

     iteration # 46     ecut=    25.00 Ry     beta= 0.10
     Davidson diagonalization with overlap
     ethr =  9.57E-04,  avg # of iterations =  3.1

     negative rho (up, down):  1.439E+00 0.000E+00

     total cpu time spent up to now is      182.7 secs

     total energy              =   -1122.78486087 Ry
     Harris-Foulkes estimate   =   -1122.79681541 Ry
     estimated scf accuracy    <      13.06527464 Ry

     iteration # 47     ecut=    25.00 Ry     beta= 0.10
     Davidson diagonalization with overlap
     ethr =  9.57E-04,  avg # of iterations =  1.0

     negative rho (up, down):  1.572E+00 0.000E+00

     total cpu time spent up to now is      186.1 secs

     total energy              =   -1122.96833441 Ry
     Harris-Foulkes estimate   =   -1122.78831545 Ry
     estimated scf accuracy    <      11.22458580 Ry

     iteration # 48     ecut=    25.00 Ry     beta= 0.10
     Davidson diagonalization with overlap
     ethr =  9.57E-04,  avg # of iterations =  3.2

     negative rho (up, down):  1.852E+00 0.000E+00

     total cpu time spent up to now is      190.0 secs

     total energy              =   -1122.29987749 Ry
     Harris-Foulkes estimate   =   -1123.12484430 Ry
     estimated scf accuracy    <      52.32926098 Ry

     iteration # 49     ecut=    25.00 Ry     beta= 0.10
     Davidson diagonalization with overlap
     ethr =  9.57E-04,  avg # of iterations =  3.2

     negative rho (up, down):  1.487E+00 0.000E+00

     total cpu time spent up to now is      194.1 secs

     total energy              =   -1122.73769092 Ry
     Harris-Foulkes estimate   =   -1122.68321797 Ry
     estimated scf accuracy    <       4.82144589 Ry

     iteration # 50     ecut=    25.00 Ry     beta= 0.10
     Davidson diagonalization with overlap
     ethr =  9.57E-04,  avg # of iterations =  3.3

     negative rho (up, down):  1.439E+00 0.000E+00

     total cpu time spent up to now is      198.2 secs

     total energy              =   -1122.83555371 Ry
     Harris-Foulkes estimate   =   -1122.91413123 Ry
     estimated scf accuracy    <      25.98775970 Ry

     iteration # 51     ecut=    25.00 Ry     beta= 0.10
     Davidson diagonalization with overlap
     ethr =  9.57E-04,  avg # of iterations =  1.4

     negative rho (up, down):  1.777E+00 0.000E+00

     total cpu time spent up to now is      201.6 secs

     total energy              =   -1122.45954621 Ry
     Harris-Foulkes estimate   =   -1122.84609958 Ry
     estimated scf accuracy    <      18.09772014 Ry

     iteration # 52     ecut=    25.00 Ry     beta= 0.10
     Davidson diagonalization with overlap
     ethr =  9.57E-04,  avg # of iterations =  3.1

     negative rho (up, down):  1.896E+00 0.000E+00

     total cpu time spent up to now is      205.4 secs

     total energy              =   -1122.66265445 Ry
     Harris-Foulkes estimate   =   -1122.64101946 Ry
     estimated scf accuracy    <       0.36103591 Ry

     iteration # 53     ecut=    25.00 Ry     beta= 0.10
     Davidson diagonalization with overlap
     ethr =  3.65E-04,  avg # of iterations =  3.1

     negative rho (up, down):  1.811E+00 0.000E+00

     total cpu time spent up to now is      209.2 secs

     total energy              =   -1122.67949338 Ry
     Harris-Foulkes estimate   =   -1122.69878077 Ry
     estimated scf accuracy    <       3.64104928 Ry

     iteration # 54     ecut=    25.00 Ry     beta= 0.10
     Davidson diagonalization with overlap
     ethr =  3.65E-04,  avg # of iterations =  1.3

     negative rho (up, down):  1.679E+00 0.000E+00

     total cpu time spent up to now is      212.7 secs

     total energy              =   -1122.46647478 Ry
     Harris-Foulkes estimate   =   -1122.68334459 Ry
     estimated scf accuracy    <       2.96086533 Ry

     iteration # 55     ecut=    25.00 Ry     beta= 0.10
     Davidson diagonalization with overlap
     ethr =  3.65E-04,  avg # of iterations =  4.1

     negative rho (up, down):  1.796E+00 0.000E+00

     total cpu time spent up to now is      217.1 secs

     total energy              =   -1122.58878662 Ry
     Harris-Foulkes estimate   =   -1122.62200375 Ry
     estimated scf accuracy    <       0.84971547 Ry

     iteration # 56     ecut=    25.00 Ry     beta= 0.10
     Davidson diagonalization with overlap
     ethr =  3.65E-04,  avg # of iterations =  4.0

     negative rho (up, down):  1.976E+00 0.000E+00

     total cpu time spent up to now is      221.5 secs

     total energy              =   -1122.73209413 Ry
     Harris-Foulkes estimate   =   -1122.66352133 Ry
     estimated scf accuracy    <       1.47088914 Ry

     iteration # 57     ecut=    25.00 Ry     beta= 0.10
     Davidson diagonalization with overlap
     ethr =  3.65E-04,  avg # of iterations =  4.3

     negative rho (up, down):  2.015E+00 0.000E+00

     total cpu time spent up to now is      225.8 secs

     total energy              =   -1122.72999949 Ry
     Harris-Foulkes estimate   =   -1122.82074839 Ry
     estimated scf accuracy    <      16.58634103 Ry

     iteration # 58     ecut=    25.00 Ry     beta= 0.10
     Davidson diagonalization with overlap
     ethr =  3.65E-04,  avg # of iterations =  3.0

     negative rho (up, down):  1.941E+00 0.000E+00

     total cpu time spent up to now is      229.6 secs

     total energy              =   -1122.66754159 Ry
     Harris-Foulkes estimate   =   -1122.78760378 Ry
     estimated scf accuracy    <       7.47999516 Ry

     iteration # 59     ecut=    25.00 Ry     beta= 0.10
     Davidson diagonalization with overlap
     ethr =  3.65E-04,  avg # of iterations =  3.4

     negative rho (up, down):  1.898E+00 0.000E+00

     total cpu time spent up to now is      233.4 secs

     total energy              =   -1122.88795586 Ry
     Harris-Foulkes estimate   =   -1122.70414734 Ry
     estimated scf accuracy    <       1.24523702 Ry

     iteration # 60     ecut=    25.00 Ry     beta= 0.10
     Davidson diagonalization with overlap
     ethr =  3.65E-04,  avg # of iterations =  4.8

     negative rho (up, down):  1.763E+00 0.000E+00

     total cpu time spent up to now is      238.5 secs

     total energy              =   -1121.79410411 Ry
     Harris-Foulkes estimate   =   -1123.39470769 Ry
     estimated scf accuracy    <      80.61375166 Ry

     iteration # 61     ecut=    25.00 Ry     beta= 0.10
     Davidson diagonalization with overlap
     ethr =  3.65E-04,  avg # of iterations =  5.1

     negative rho (up, down):  1.799E+00 0.000E+00

     total cpu time spent up to now is      243.5 secs

     total energy              =   -1122.68842183 Ry
     Harris-Foulkes estimate   =   -1122.67562191 Ry
     estimated scf accuracy    <       2.23646793 Ry

     iteration # 62     ecut=    25.00 Ry     beta= 0.10
     Davidson diagonalization with overlap
     ethr =  3.65E-04,  avg # of iterations =  3.9

     negative rho (up, down):  1.803E+00 0.000E+00

     total cpu time spent up to now is      247.8 secs

     total energy              =   -1122.76956247 Ry
     Harris-Foulkes estimate   =   -1122.77679276 Ry
     estimated scf accuracy    <       9.98123750 Ry

     iteration # 63     ecut=    25.00 Ry     beta= 0.10
     Davidson diagonalization with overlap
     ethr =  3.65E-04,  avg # of iterations =  1.0

     negative rho (up, down):  1.760E+00 0.000E+00

     total cpu time spent up to now is      251.2 secs

     total energy              =   -1122.76814964 Ry
     Harris-Foulkes estimate   =   -1122.77058076 Ry
     estimated scf accuracy    <       8.95626737 Ry

     iteration # 64     ecut=    25.00 Ry     beta= 0.10
     Davidson diagonalization with overlap
     ethr =  3.65E-04,  avg # of iterations =  2.3

     negative rho (up, down):  1.645E+00 0.000E+00

     total cpu time spent up to now is      254.9 secs

     total energy              =   -1122.39487045 Ry
     Harris-Foulkes estimate   =   -1122.79383653 Ry
     estimated scf accuracy    <      13.80328010 Ry

     iteration # 65     ecut=    25.00 Ry     beta= 0.10
     Davidson diagonalization with overlap
     ethr =  3.65E-04,  avg # of iterations =  4.1

     negative rho (up, down):  1.619E+00 0.000E+00

     total cpu time spent up to now is      259.4 secs

     total energy              =   -1122.65397509 Ry
     Harris-Foulkes estimate   =   -1122.65238498 Ry
     estimated scf accuracy    <       0.40243638 Ry

     iteration # 66     ecut=    25.00 Ry     beta= 0.10
     Davidson diagonalization with overlap
     ethr =  3.65E-04,  avg # of iterations =  1.0

     negative rho (up, down):  1.611E+00 0.000E+00

     total cpu time spent up to now is      262.9 secs

     total energy              =   -1122.64411961 Ry
     Harris-Foulkes estimate   =   -1122.65448641 Ry
     estimated scf accuracy    <       0.36095704 Ry

     iteration # 67     ecut=    25.00 Ry     beta= 0.10
     Davidson diagonalization with overlap
     ethr =  3.65E-04,  avg # of iterations =  1.0

     negative rho (up, down):  1.607E+00 0.000E+00

     total cpu time spent up to now is      266.2 secs

     total energy              =   -1122.64460644 Ry
     Harris-Foulkes estimate   =   -1122.64551943 Ry
     estimated scf accuracy    <       0.26858012 Ry

     iteration # 68     ecut=    25.00 Ry     beta= 0.10
     Davidson diagonalization with overlap
     ethr =  2.71E-04,  avg # of iterations =  1.1

     negative rho (up, down):  1.602E+00 0.000E+00

     total cpu time spent up to now is      269.6 secs

     total energy              =   -1122.64031195 Ry
     Harris-Foulkes estimate   =   -1122.64793303 Ry
     estimated scf accuracy    <       0.22400656 Ry

     iteration # 69     ecut=    25.00 Ry     beta= 0.10
     Davidson diagonalization with overlap
     ethr =  2.26E-04,  avg # of iterations =  3.0

     negative rho (up, down):  1.702E+00 0.000E+00

     total cpu time spent up to now is      273.4 secs

     total energy              =   -1122.66775777 Ry
     Harris-Foulkes estimate   =   -1122.65703154 Ry
     estimated scf accuracy    <       0.59614367 Ry

     iteration # 70     ecut=    25.00 Ry     beta= 0.10
     Davidson diagonalization with overlap
     ethr =  2.26E-04,  avg # of iterations =  3.1

     negative rho (up, down):  1.598E+00 0.000E+00

     total cpu time spent up to now is      277.4 secs

     total energy              =   -1122.60075075 Ry
     Harris-Foulkes estimate   =   -1122.69587844 Ry
     estimated scf accuracy    <       2.09921311 Ry

     iteration # 71     ecut=    25.00 Ry     beta= 0.10
     Davidson diagonalization with overlap
     ethr =  2.26E-04,  avg # of iterations =  3.9

     negative rho (up, down):  1.487E+00 0.000E+00

     total cpu time spent up to now is      282.4 secs

     total energy              =   -1122.79594767 Ry
     Harris-Foulkes estimate   =   -1122.73660124 Ry
     estimated scf accuracy    <       6.21618859 Ry

     iteration # 72     ecut=    25.00 Ry     beta= 0.10
     Davidson diagonalization with overlap
     ethr =  2.26E-04,  avg # of iterations =  3.4

     negative rho (up, down):  1.679E+00 0.000E+00

     total cpu time spent up to now is      286.3 secs

     total energy              =   -1122.68602944 Ry
     Harris-Foulkes estimate   =   -1122.82259069 Ry
     estimated scf accuracy    <      13.82992646 Ry

     iteration # 73     ecut=    25.00 Ry     beta= 0.10
     Davidson diagonalization with overlap
     ethr =  2.26E-04,  avg # of iterations =  3.1

     negative rho (up, down):  1.661E+00 0.000E+00

     total cpu time spent up to now is      290.6 secs

     total energy              =   -1122.76570070 Ry
     Harris-Foulkes estimate   =   -1122.74414288 Ry
     estimated scf accuracy    <       7.12646376 Ry

     iteration # 74     ecut=    25.00 Ry     beta= 0.10
     Davidson diagonalization with overlap
     ethr =  2.26E-04,  avg # of iterations =  1.4

     negative rho (up, down):  1.607E+00 0.000E+00

     total cpu time spent up to now is      294.0 secs

     total energy              =   -1122.66461305 Ry
     Harris-Foulkes estimate   =   -1122.76766119 Ry
     estimated scf accuracy    <       8.89218333 Ry

     iteration # 75     ecut=    25.00 Ry     beta= 0.10
     Davidson diagonalization with overlap
     ethr =  2.26E-04,  avg # of iterations =  3.0

     negative rho (up, down):  1.471E+00 0.000E+00

     total cpu time spent up to now is      298.1 secs

     total energy              =   -1122.72875541 Ry
     Harris-Foulkes estimate   =   -1122.72237450 Ry
     estimated scf accuracy    <       6.07405470 Ry

     iteration # 76     ecut=    25.00 Ry     beta= 0.10
     Davidson diagonalization with overlap
     ethr =  2.26E-04,  avg # of iterations =  3.4

     negative rho (up, down):  1.505E+00 0.000E+00

     total cpu time spent up to now is      302.4 secs

     total energy              =   -1122.84168139 Ry
     Harris-Foulkes estimate   =   -1122.79731542 Ry
     estimated scf accuracy    <      14.72341356 Ry

     iteration # 77     ecut=    25.00 Ry     beta= 0.10
     Davidson diagonalization with overlap
     ethr =  2.26E-04,  avg # of iterations =  2.7

     negative rho (up, down):  1.445E+00 0.000E+00

     total cpu time spent up to now is      306.1 secs

     total energy              =   -1122.80976331 Ry
     Harris-Foulkes estimate   =   -1122.85636349 Ry
     estimated scf accuracy    <      20.80443015 Ry

     iteration # 78     ecut=    25.00 Ry     beta= 0.10
     Davidson diagonalization with overlap
     ethr =  2.26E-04,  avg # of iterations =  2.3

     negative rho (up, down):  1.284E+00 0.000E+00

     total cpu time spent up to now is      309.7 secs

     total energy              =   -1122.45972797 Ry
     Harris-Foulkes estimate   =   -1122.81734429 Ry
     estimated scf accuracy    <      15.42314765 Ry

     iteration # 79     ecut=    25.00 Ry     beta= 0.10
     Davidson diagonalization with overlap
     ethr =  2.26E-04,  avg # of iterations =  4.3

     negative rho (up, down):  1.514E+00 0.000E+00

     total cpu time spent up to now is      314.5 secs

     total energy              =   -1122.66528279 Ry
     Harris-Foulkes estimate   =   -1122.64199470 Ry
     estimated scf accuracy    <       0.38018520 Ry

     iteration # 80     ecut=    25.00 Ry     beta= 0.10
     Davidson diagonalization with overlap
     ethr =  2.26E-04,  avg # of iterations =  4.2

     negative rho (up, down):  1.498E+00 0.000E+00

     total cpu time spent up to now is      319.2 secs

     total energy              =   -1122.82867215 Ry
     Harris-Foulkes estimate   =   -1122.79283951 Ry
     estimated scf accuracy    <      12.19437605 Ry

     iteration # 81     ecut=    25.00 Ry     beta= 0.10
     Davidson diagonalization with overlap
     ethr =  2.26E-04,  avg # of iterations =  1.6

     negative rho (up, down):  1.606E+00 0.000E+00

     total cpu time spent up to now is      322.7 secs

     total energy              =   -1122.71391723 Ry
     Harris-Foulkes estimate   =   -1122.83140034 Ry
     estimated scf accuracy    <      15.55337295 Ry

     iteration # 82     ecut=    25.00 Ry     beta= 0.10
     Davidson diagonalization with overlap
     ethr =  2.26E-04,  avg # of iterations =  2.9

     negative rho (up, down):  1.578E+00 0.000E+00

     total cpu time spent up to now is      326.7 secs

     total energy              =   -1122.77805088 Ry
     Harris-Foulkes estimate   =   -1122.75760789 Ry
     estimated scf accuracy    <       9.23716021 Ry

     iteration # 83     ecut=    25.00 Ry     beta= 0.10
     Davidson diagonalization with overlap
     ethr =  2.26E-04,  avg # of iterations =  2.3

     negative rho (up, down):  1.584E+00 0.000E+00

     total cpu time spent up to now is      330.3 secs

     total energy              =   -1122.79902151 Ry
     Harris-Foulkes estimate   =   -1122.78849626 Ry
     estimated scf accuracy    <      12.42694179 Ry

     iteration # 84     ecut=    25.00 Ry     beta= 0.10
     Davidson diagonalization with overlap
     ethr =  2.26E-04,  avg # of iterations =  4.0

     negative rho (up, down):  1.520E+00 0.000E+00

     total cpu time spent up to now is      334.8 secs

     total energy              =   -1123.01464834 Ry
     Harris-Foulkes estimate   =   -1122.89516681 Ry
     estimated scf accuracy    <      25.22025236 Ry

     iteration # 85     ecut=    25.00 Ry     beta= 0.10
     Davidson diagonalization with overlap
     ethr =  2.26E-04,  avg # of iterations =  3.3

     negative rho (up, down):  1.544E+00 0.000E+00

     total cpu time spent up to now is      338.6 secs

     total energy              =   -1122.64668699 Ry
     Harris-Foulkes estimate   =   -1123.04595559 Ry
     estimated scf accuracy    <      44.04558656 Ry

     iteration # 86     ecut=    25.00 Ry     beta= 0.10
     Davidson diagonalization with overlap
     ethr =  2.26E-04,  avg # of iterations =  4.0

     negative rho (up, down):  1.546E+00 0.000E+00

     total cpu time spent up to now is      343.0 secs

     total energy              =   -1122.72026264 Ry
     Harris-Foulkes estimate   =   -1122.77288721 Ry
     estimated scf accuracy    <      10.38262241 Ry

     iteration # 87     ecut=    25.00 Ry     beta= 0.10
     Davidson diagonalization with overlap
     ethr =  2.26E-04,  avg # of iterations =  2.2

     negative rho (up, down):  1.529E+00 0.000E+00

     total cpu time spent up to now is      346.7 secs

     total energy              =   -1122.66951660 Ry
     Harris-Foulkes estimate   =   -1122.74128170 Ry
     estimated scf accuracy    <       6.18655304 Ry

     iteration # 88     ecut=    25.00 Ry     beta= 0.10
     Davidson diagonalization with overlap
     ethr =  2.26E-04,  avg # of iterations =  3.1

     negative rho (up, down):  1.506E+00 0.000E+00

     total cpu time spent up to now is      350.4 secs

     total energy              =   -1122.65582868 Ry
     Harris-Foulkes estimate   =   -1122.68667766 Ry
     estimated scf accuracy    <       2.13220907 Ry

     iteration # 89     ecut=    25.00 Ry     beta= 0.10
     Davidson diagonalization with overlap
     ethr =  2.26E-04,  avg # of iterations =  2.5

     negative rho (up, down):  1.497E+00 0.000E+00

     total cpu time spent up to now is      354.0 secs

     total energy              =   -1122.65956371 Ry
     Harris-Foulkes estimate   =   -1122.66365280 Ry
     estimated scf accuracy    <       0.61953552 Ry

     iteration # 90     ecut=    25.00 Ry     beta= 0.10
     Davidson diagonalization with overlap
     ethr =  2.26E-04,  avg # of iterations =  1.0

     negative rho (up, down):  1.493E+00 0.000E+00

     total cpu time spent up to now is      357.4 secs

     total energy              =   -1122.64751107 Ry
     Harris-Foulkes estimate   =   -1122.66001944 Ry
     estimated scf accuracy    <       0.48337871 Ry

     iteration # 91     ecut=    25.00 Ry     beta= 0.10
     Davidson diagonalization with overlap
     ethr =  2.26E-04,  avg # of iterations =  1.6

     negative rho (up, down):  1.534E+00 0.000E+00

     total cpu time spent up to now is      360.8 secs

     total energy              =   -1122.65953129 Ry
     Harris-Foulkes estimate   =   -1122.65105472 Ry
     estimated scf accuracy    <       0.15814732 Ry

     iteration # 92     ecut=    25.00 Ry     beta= 0.10
     Davidson diagonalization with overlap
     ethr =  1.60E-04,  avg # of iterations =  1.7

     negative rho (up, down):  1.614E+00 0.000E+00

     total cpu time spent up to now is      364.2 secs

     total energy              =   -1122.70364193 Ry
     Harris-Foulkes estimate   =   -1122.66196725 Ry
     estimated scf accuracy    <       0.31593669 Ry

     iteration # 93     ecut=    25.00 Ry     beta= 0.10
     Davidson diagonalization with overlap
     ethr =  1.60E-04,  avg # of iterations =  3.4

     negative rho (up, down):  1.580E+00 0.000E+00

     total cpu time spent up to now is      368.3 secs

     total energy              =   -1122.62299086 Ry
     Harris-Foulkes estimate   =   -1122.74257706 Ry
     estimated scf accuracy    <       4.69244059 Ry

     iteration # 94     ecut=    25.00 Ry     beta= 0.10
     Davidson diagonalization with overlap
     ethr =  1.60E-04,  avg # of iterations =  3.5

     negative rho (up, down):  1.605E+00 0.000E+00

     total cpu time spent up to now is      372.6 secs

     total energy              =   -1122.65425635 Ry
     Harris-Foulkes estimate   =   -1122.67186934 Ry
     estimated scf accuracy    <       0.77192042 Ry

     iteration # 95     ecut=    25.00 Ry     beta= 0.10
     Davidson diagonalization with overlap
     ethr =  1.60E-04,  avg # of iterations =  2.3

     negative rho (up, down):  1.589E+00 0.000E+00

     total cpu time spent up to now is      376.3 secs

     total energy              =   -1122.66931670 Ry
     Harris-Foulkes estimate   =   -1122.66918139 Ry
     estimated scf accuracy    <       0.60379437 Ry

     iteration # 96     ecut=    25.00 Ry     beta= 0.10
     Davidson diagonalization with overlap
     ethr =  1.60E-04,  avg # of iterations =  1.0

     negative rho (up, down):  1.614E+00 0.000E+00

     total cpu time spent up to now is      379.7 secs

     total energy              =   -1122.68866429 Ry
     Harris-Foulkes estimate   =   -1122.67066171 Ry
     estimated scf accuracy    <       0.68466535 Ry

     iteration # 97     ecut=    25.00 Ry     beta= 0.10
     Davidson diagonalization with overlap
     ethr =  1.60E-04,  avg # of iterations =  3.4

     negative rho (up, down):  1.626E+00 0.000E+00

     total cpu time spent up to now is      383.5 secs

     total energy              =   -1122.68362406 Ry
     Harris-Foulkes estimate   =   -1122.70043142 Ry
     estimated scf accuracy    <       2.78751535 Ry

     iteration # 98     ecut=    25.00 Ry     beta= 0.10
     Davidson diagonalization with overlap
     ethr =  1.60E-04,  avg # of iterations =  2.0

     negative rho (up, down):  1.703E+00 0.000E+00

     total cpu time spent up to now is      387.0 secs

     total energy              =   -1122.70217294 Ry
     Harris-Foulkes estimate   =   -1122.68913640 Ry
     estimated scf accuracy    <       2.00005396 Ry

     iteration # 99     ecut=    25.00 Ry     beta= 0.10
     Davidson diagonalization with overlap
     ethr =  1.60E-04,  avg # of iterations =  3.9

     negative rho (up, down):  1.554E+00 0.000E+00

     total cpu time spent up to now is      391.4 secs

     total energy              =   -1122.63500251 Ry
     Harris-Foulkes estimate   =   -1122.75997055 Ry
     estimated scf accuracy    <       8.31690954 Ry

     iteration #100     ecut=    25.00 Ry     beta= 0.10
     Davidson diagonalization with overlap
     ethr =  1.60E-04,  avg # of iterations =  3.1

     negative rho (up, down):  1.506E+00 0.000E+00

     total cpu time spent up to now is      395.7 secs

     total energy              =   -1122.68339034 Ry
     Harris-Foulkes estimate   =   -1122.69655549 Ry
     estimated scf accuracy    <       3.26642314 Ry

     End of self-consistent calculation

     convergence NOT achieved after 100 iterations: stopping

     Writing output data file wZGllbwQLzWHzSKL.save/

     init_run     :      3.59s CPU      3.63s WALL (       1 calls)
     electrons    :    391.34s CPU    391.73s WALL (       1 calls)

     Called by init_run:
     wfcinit      :      2.45s CPU      2.46s WALL (       1 calls)
     potinit      :      0.99s CPU      1.02s WALL (       1 calls)
     hinit0       :      0.12s CPU      0.12s WALL (       1 calls)

     Called by electrons:
     c_bands      :    261.06s CPU    261.39s WALL (     100 calls)
     sum_band     :     31.67s CPU     31.72s WALL (     100 calls)
     v_of_rho     :      0.81s CPU      0.81s WALL (     101 calls)
     newd         :      2.42s CPU      2.42s WALL (     101 calls)
     PAW_pot      :     96.14s CPU     96.17s WALL (     101 calls)
     mix_rho      :      0.19s CPU      0.19s WALL (     100 calls)

     Called by c_bands:
     init_us_2    :      1.45s CPU      1.45s WALL (    2814 calls)
     cegterg      :    256.62s CPU    256.93s WALL (    1400 calls)

     Called by sum_band:
     sum_band:bec :      0.38s CPU      0.39s WALL (    1400 calls)
     addusdens    :      0.99s CPU      0.99s WALL (     100 calls)

     Called by *egterg:
     h_psi        :    123.09s CPU    123.35s WALL (    5355 calls)
     s_psi        :     40.21s CPU     40.23s WALL (    5355 calls)
     g_psi        :      0.33s CPU      0.33s WALL (    3941 calls)
     cdiaghg      :     35.65s CPU     35.65s WALL (    5341 calls)

     Called by h_psi:
     h_psi:pot    :    122.79s CPU    123.05s WALL (    5355 calls)
     h_psi:calbec :     50.50s CPU     50.55s WALL (    5355 calls)
     vloc_psi     :     32.10s CPU     32.29s WALL (    5355 calls)
     add_vuspsi   :     40.19s CPU     40.20s WALL (    5355 calls)

     General routines
     calbec       :     72.62s CPU     72.69s WALL (    6755 calls)
     fft          :      0.30s CPU      0.30s WALL (    1313 calls)
     ffts         :      0.01s CPU      0.01s WALL (     201 calls)
     fftw         :     34.97s CPU     35.17s WALL (  464402 calls)
     interpolate  :      0.03s CPU      0.03s WALL (     101 calls)
     davcio       :      0.00s CPU      0.01s WALL (      36 calls)

     Parallel routines

     PWSCF        :   6m35.25s CPU   6m35.68s WALL


   This run was terminated on:  16:56:22  18Mar2020            

=------------------------------------------------------------------------------=
   JOB DONE.
=------------------------------------------------------------------------------=
