
     Program PWSCF v.6.4.1 starts on 18Mar2020 at 16:56:24 

     This program is part of the open-source Quantum ESPRESSO suite
     for quantum simulation of materials; please cite
         "P. Giannozzi et al., J. Phys.:Condens. Matter 21 395502 (2009);
         "P. Giannozzi et al., J. Phys.:Condens. Matter 29 465901 (2017);
          URL http://www.quantum-espresso.org", 
     in publications or presentations arising from this work. More details at
     http://www.quantum-espresso.org/quote

     Parallel version (MPI), running on     1 processors

     MPI processes distributed on     1 nodes
     Reading input from wd/configs/1/config_0007.in
Warning: card &IONS ignored
Warning: card ION_DYNAMICS = 'BFGS', ignored
Warning: card / ignored
Warning: card &CELL ignored
Warning: card CELL_DYNAMICS = 'BFGS', ignored
Warning: card CELL_FACTOR = 2.0, ignored
Warning: card PRESS = 0.0, ignored
Warning: card / ignored

     Current dimensions of program PWSCF are:
     Max number of different atomic species (ntypx) = 10
     Max number of k-points (npk) =  40000
     Max angular momentum in pseudopotentials (lmaxx) =  3
               file Al.pbe-nl-kjpaw_psl.1.0.0.UPF: wavefunction(s)  3S 3P renormalized

     Subspace diagonalization in iterative solution of the eigenvalue problem:
     a serial algorithm will be used


     G-vector sticks info
     --------------------
     sticks:   dense  smooth     PW     G-vecs:    dense   smooth      PW
     Sum         593     481    149                11019     7809    1419



     bravais-lattice index     =            0
     lattice parameter (alat)  =       7.7089  a.u.
     unit-cell volume          =     458.1197 (a.u.)^3
     number of atoms/cell      =           33
     number of atomic types    =            1
     number of electrons       =        99.00
     number of Kohn-Sham states=           60
     kinetic-energy cutoff     =      25.0000  Ry
     charge density cutoff     =     126.0000  Ry
     convergence threshold     =      1.0E-06
     mixing beta               =       0.1000
     number of iterations used =           10  TF        mixing
     Exchange-correlation      = SLA PW PBX PBC ( 1  4  3  4 0 0)

     celldm(1)=   7.708910  celldm(2)=   0.000000  celldm(3)=   0.000000
     celldm(4)=   0.000000  celldm(5)=   0.000000  celldm(6)=   0.000000

     crystal axes: (cart. coord. in units of alat)
               a(1) = (   1.000000   0.000000   0.000000 )  
               a(2) = (   0.000000   1.000000   0.000000 )  
               a(3) = (   0.000000   0.000000   1.000000 )  

     reciprocal axes: (cart. coord. in units 2 pi/alat)
               b(1) = (  1.000000  0.000000  0.000000 )  
               b(2) = (  0.000000  1.000000  0.000000 )  
               b(3) = (  0.000000  0.000000  1.000000 )  


     PseudoPot. # 1 for Al read from file:
     /opt/pp/Al.pbe-nl-kjpaw_psl.1.0.0.UPF
     MD5 check sum: 1b67f78b73fe58c7924490f171ce8a1e
     Pseudo is Projector augmented-wave + core cor, Zval =  3.0
     Generated using "atomic" code by A. Dal Corso v.6.3
     Shape of augmentation charge: PSQ
     Using radial grid of 1135 points,  4 beta functions with: 
                l(1) =   0
                l(2) =   0
                l(3) =   1
                l(4) =   1
     Q(r) pseudized with 0 coefficients 


     atomic species   valence    mass     pseudopotential
        Al             3.00    26.98200     Al( 1.00)

     No symmetry found



   Cartesian axes

     site n.     atom                  positions (alat units)
         1           Al  tau(   1) = (  -0.0014267  -0.0012595  -0.0010277  )
         2           Al  tau(   2) = (   0.2490182   0.2479501  -0.0010186  )
         3           Al  tau(   3) = (   0.2483349  -0.0011764   0.2498735  )
         4           Al  tau(   4) = (  -0.0013765   0.2495693   0.2494306  )
         5           Al  tau(   5) = (  -0.0002837  -0.0002983   0.4982313  )
         6           Al  tau(   6) = (   0.2491760   0.2480395   0.4987170  )
         7           Al  tau(   7) = (   0.2488129  -0.0006875   0.7482592  )
         8           Al  tau(   8) = (  -0.0010796   0.2491530   0.7495353  )
         9           Al  tau(   9) = (  -0.0003564   0.4991299  -0.0013584  )
        10           Al  tau(  10) = (   0.2492559   0.7494009   0.0003088  )
        11           Al  tau(  11) = (   0.2494520   0.4991340   0.2496974  )
        12           Al  tau(  12) = (  -0.0011453   0.7488832   0.2488032  )
        13           Al  tau(  13) = (  -0.0008608   0.4993215   0.4990951  )
        14           Al  tau(  14) = (   0.2485603   0.7489534   0.4981903  )
        15           Al  tau(  15) = (   0.2500363   0.4978683   0.7474984  )
        16           Al  tau(  16) = (  -0.0025967   0.7475361   0.7486757  )
        17           Al  tau(  17) = (   0.2495098   0.2483050   0.2485494  )
        18           Al  tau(  18) = (   0.4983555  -0.0009245  -0.0022209  )
        19           Al  tau(  19) = (   0.7472582   0.2483229  -0.0009916  )
        20           Al  tau(  20) = (   0.7486043  -0.0014503   0.2480361  )
        21           Al  tau(  21) = (   0.4983903   0.2498633   0.2485942  )
        22           Al  tau(  22) = (   0.4989736  -0.0025023   0.4985137  )
        23           Al  tau(  23) = (   0.7488444   0.2484308   0.4988045  )
        24           Al  tau(  24) = (   0.7487479  -0.0017473   0.7486823  )
        25           Al  tau(  25) = (   0.4981188   0.2491608   0.7478342  )
        26           Al  tau(  26) = (   0.4978008   0.4990904  -0.0002131  )
        27           Al  tau(  27) = (   0.7491018   0.7479175  -0.0015104  )
        28           Al  tau(  28) = (   0.7490505   0.4978740   0.2495319  )
        29           Al  tau(  29) = (   0.4974196   0.7491096   0.2488629  )
        30           Al  tau(  30) = (   0.4993596   0.4986522   0.4981269  )
        31           Al  tau(  31) = (   0.7484934   0.7487403   0.4992549  )
        32           Al  tau(  32) = (   0.7487590   0.4984993   0.7483768  )
        33           Al  tau(  33) = (   0.4981271   0.7477749   0.7486585  )

     number of k points=    14  Marzari-Vanderbilt smearing, width (Ry)=  0.0200
                       cart. coord. in units 2pi/alat
        k(    1) = (   0.1666667   0.1666667   0.1666667), wk =   0.1481481
        k(    2) = (   0.1666667   0.1666667  -0.5000000), wk =   0.1481481
        k(    3) = (   0.1666667  -0.5000000  -0.5000000), wk =   0.1481481
        k(    4) = (  -0.5000000  -0.5000000  -0.5000000), wk =   0.0740741
        k(    5) = (  -0.1666667  -0.1666667   0.1666667), wk =   0.1481481
        k(    6) = (  -0.1666667   0.1666667  -0.1666667), wk =   0.1481481
        k(    7) = (   0.1666667  -0.1666667  -0.1666667), wk =   0.1481481
        k(    8) = (  -0.1666667   0.1666667   0.5000000), wk =   0.1481481
        k(    9) = (  -0.5000000  -0.1666667   0.1666667), wk =   0.1481481
        k(   10) = (   0.5000000  -0.1666667  -0.1666667), wk =   0.1481481
        k(   11) = (  -0.1666667  -0.5000000   0.1666667), wk =   0.1481481
        k(   12) = (  -0.1666667   0.5000000  -0.1666667), wk =   0.1481481
        k(   13) = (  -0.5000000   0.1666667   0.5000000), wk =   0.1481481
        k(   14) = (  -0.5000000   0.5000000   0.1666667), wk =   0.1481481

     Dense  grid:    11019 G-vectors     FFT dimensions: (  27,  27,  27)

     Smooth grid:     7809 G-vectors     FFT dimensions: (  25,  25,  25)

     Estimated max dynamical RAM per process >      47.72 MB

     Initial potential from superposition of free atoms

     starting charge   98.92442, renormalised to   99.00000
     Starting wfcs are  132 randomized atomic wfcs
     Checking if some PAW data can be deallocated... 

     total cpu time spent up to now is        3.7 secs

     Self-consistent Calculation

     iteration #  1     ecut=    25.00 Ry     beta= 0.10
     Davidson diagonalization with overlap
     ethr =  1.00E-02,  avg # of iterations =  4.9

     negative rho (up, down):  3.504E-01 0.000E+00

     total cpu time spent up to now is       11.2 secs

     total energy              =   -1130.90243298 Ry
     Harris-Foulkes estimate   =   -1130.89208978 Ry
     estimated scf accuracy    <      76.93059898 Ry

     iteration #  2     ecut=    25.00 Ry     beta= 0.10
     Davidson diagonalization with overlap
     ethr =  1.00E-02,  avg # of iterations =  2.3

     negative rho (up, down):  4.641E-02 0.000E+00

     total cpu time spent up to now is       14.7 secs

     total energy              =   -1129.82761368 Ry
     Harris-Foulkes estimate   =   -1131.78087120 Ry
     estimated scf accuracy    <     101.60818676 Ry

     iteration #  3     ecut=    25.00 Ry     beta= 0.10
     Davidson diagonalization with overlap
     ethr =  1.00E-02,  avg # of iterations =  2.0

     negative rho (up, down):  3.859E-03 0.000E+00

     total cpu time spent up to now is       18.3 secs

     total energy              =   -1129.95758219 Ry
     Harris-Foulkes estimate   =   -1130.54044768 Ry
     estimated scf accuracy    <      84.97774134 Ry

     iteration #  4     ecut=    25.00 Ry     beta= 0.10
     Davidson diagonalization with overlap
     ethr =  1.00E-02,  avg # of iterations =  3.1

     total cpu time spent up to now is       21.9 secs

     total energy              =   -1127.07850152 Ry
     Harris-Foulkes estimate   =   -1133.84055428 Ry
     estimated scf accuracy    <      18.75657579 Ry

     iteration #  5     ecut=    25.00 Ry     beta= 0.10
     Davidson diagonalization with overlap
     ethr =  1.00E-02,  avg # of iterations =  4.0

     negative rho (up, down):  2.390E+00 0.000E+00

     total cpu time spent up to now is       26.3 secs

     total energy              =   -1133.74272766 Ry
     Harris-Foulkes estimate   =   -1130.55705888 Ry
     estimated scf accuracy    <     100.75672364 Ry

     iteration #  6     ecut=    25.00 Ry     beta= 0.10
     Davidson diagonalization with overlap
     ethr =  1.00E-02,  avg # of iterations =  3.0

     negative rho (up, down):  2.986E+00 0.000E+00

     total cpu time spent up to now is       29.9 secs

     total energy              =   -1134.31229560 Ry
     Harris-Foulkes estimate   =   -1136.81373266 Ry
     estimated scf accuracy    <      60.29668472 Ry

     iteration #  7     ecut=    25.00 Ry     beta= 0.10
     Davidson diagonalization with overlap
     ethr =  1.00E-02,  avg # of iterations =  2.0

     negative rho (up, down):  3.128E+00 0.000E+00

     total cpu time spent up to now is       33.3 secs

     total energy              =   -1135.64210345 Ry
     Harris-Foulkes estimate   =   -1134.92984564 Ry
     estimated scf accuracy    <      49.08856298 Ry

     iteration #  8     ecut=    25.00 Ry     beta= 0.10
     Davidson diagonalization with overlap
     ethr =  1.00E-02,  avg # of iterations =  2.0

     negative rho (up, down):  1.374E+00 0.000E+00

     total cpu time spent up to now is       36.7 secs

     total energy              =   -1121.89680718 Ry
     Harris-Foulkes estimate   =   -1135.71865993 Ry
     estimated scf accuracy    <      46.61369301 Ry

     iteration #  9     ecut=    25.00 Ry     beta= 0.10
     Davidson diagonalization with overlap
     ethr =  1.00E-02,  avg # of iterations =  3.0

     negative rho (up, down):  1.879E+00 0.000E+00

     total cpu time spent up to now is       40.6 secs

     total energy              =   -1127.73590588 Ry
     Harris-Foulkes estimate   =   -1125.23868887 Ry
     estimated scf accuracy    <     126.83732064 Ry

     iteration # 10     ecut=    25.00 Ry     beta= 0.10
     Davidson diagonalization with overlap
     ethr =  1.00E-02,  avg # of iterations =  2.0

     negative rho (up, down):  2.284E+00 0.000E+00

     total cpu time spent up to now is       44.0 secs

     total energy              =   -1128.75121238 Ry
     Harris-Foulkes estimate   =   -1128.04819755 Ry
     estimated scf accuracy    <     104.59776794 Ry

     iteration # 11     ecut=    25.00 Ry     beta= 0.10
     Davidson diagonalization with overlap
     ethr =  1.00E-02,  avg # of iterations =  2.0

     negative rho (up, down):  2.353E+00 0.000E+00

     total cpu time spent up to now is       47.5 secs

     total energy              =   -1128.48192158 Ry
     Harris-Foulkes estimate   =   -1129.05577110 Ry
     estimated scf accuracy    <     106.44489874 Ry

     iteration # 12     ecut=    25.00 Ry     beta= 0.10
     Davidson diagonalization with overlap
     ethr =  1.00E-02,  avg # of iterations =  3.0

     negative rho (up, down):  2.028E+00 0.000E+00

     total cpu time spent up to now is       51.0 secs

     total energy              =   -1127.00892798 Ry
     Harris-Foulkes estimate   =   -1129.86703592 Ry
     estimated scf accuracy    <      81.50511012 Ry

     iteration # 13     ecut=    25.00 Ry     beta= 0.10
     Davidson diagonalization with overlap
     ethr =  1.00E-02,  avg # of iterations =  2.0

     negative rho (up, down):  3.851E+00 0.000E+00

     total cpu time spent up to now is       54.4 secs

     total energy              =   -1131.49132145 Ry
     Harris-Foulkes estimate   =   -1127.66248053 Ry
     estimated scf accuracy    <     113.84469836 Ry

     iteration # 14     ecut=    25.00 Ry     beta= 0.10
     Davidson diagonalization with overlap
     ethr =  1.00E-02,  avg # of iterations =  3.0

     negative rho (up, down):  6.137E+00 0.000E+00

     total cpu time spent up to now is       58.0 secs

     total energy              =   -1136.27405967 Ry
     Harris-Foulkes estimate   =   -1134.33955423 Ry
     estimated scf accuracy    <      47.18014270 Ry

     iteration # 15     ecut=    25.00 Ry     beta= 0.10
     Davidson diagonalization with overlap
     ethr =  1.00E-02,  avg # of iterations =  2.0

     negative rho (up, down):  6.290E+00 0.000E+00

     total cpu time spent up to now is       61.4 secs

     total energy              =   -1136.66156722 Ry
     Harris-Foulkes estimate   =   -1136.83375619 Ry
     estimated scf accuracy    <      22.81194979 Ry

     iteration # 16     ecut=    25.00 Ry     beta= 0.10
     Davidson diagonalization with overlap
     ethr =  1.00E-02,  avg # of iterations =  2.0

     negative rho (up, down):  6.218E+00 0.000E+00

     total cpu time spent up to now is       64.9 secs

     total energy              =   -1136.35336175 Ry
     Harris-Foulkes estimate   =   -1136.80522945 Ry
     estimated scf accuracy    <      21.09928833 Ry

     iteration # 17     ecut=    25.00 Ry     beta= 0.10
     Davidson diagonalization with overlap
     ethr =  1.00E-02,  avg # of iterations =  2.0

     negative rho (up, down):  6.338E+00 0.000E+00

     total cpu time spent up to now is       68.3 secs

     total energy              =   -1137.30638118 Ry
     Harris-Foulkes estimate   =   -1137.28708378 Ry
     estimated scf accuracy    <      34.97589333 Ry

     iteration # 18     ecut=    25.00 Ry     beta= 0.10
     Davidson diagonalization with overlap
     ethr =  1.00E-02,  avg # of iterations =  1.0

     negative rho (up, down):  7.426E+00 0.000E+00

     total cpu time spent up to now is       71.6 secs

     total energy              =   -1132.79915747 Ry
     Harris-Foulkes estimate   =   -1137.36998900 Ry
     estimated scf accuracy    <      35.69276975 Ry

     iteration # 19     ecut=    25.00 Ry     beta= 0.10
     Davidson diagonalization with overlap
     ethr =  1.00E-02,  avg # of iterations =  3.0

     negative rho (up, down):  9.071E+00 0.000E+00

     total cpu time spent up to now is       75.1 secs

     total energy              =   -1132.11067761 Ry
     Harris-Foulkes estimate   =   -1135.78758548 Ry
     estimated scf accuracy    <      16.60353456 Ry

     iteration # 20     ecut=    25.00 Ry     beta= 0.10
     Davidson diagonalization with overlap
     ethr =  1.00E-02,  avg # of iterations =  3.0

     negative rho (up, down):  9.290E+00 0.000E+00

     total cpu time spent up to now is       78.8 secs

     total energy              =   -1134.01709400 Ry
     Harris-Foulkes estimate   =   -1135.62118485 Ry
     estimated scf accuracy    <      22.89453095 Ry

     iteration # 21     ecut=    25.00 Ry     beta= 0.10
     Davidson diagonalization with overlap
     ethr =  1.00E-02,  avg # of iterations =  2.0

     negative rho (up, down):  9.155E+00 0.000E+00

     total cpu time spent up to now is       82.2 secs

     total energy              =   -1134.18593454 Ry
     Harris-Foulkes estimate   =   -1134.25827136 Ry
     estimated scf accuracy    <      15.29952628 Ry

     iteration # 22     ecut=    25.00 Ry     beta= 0.10
     Davidson diagonalization with overlap
     ethr =  1.00E-02,  avg # of iterations =  2.0

     negative rho (up, down):  9.274E+00 0.000E+00

     total cpu time spent up to now is       85.6 secs

     total energy              =   -1133.88326375 Ry
     Harris-Foulkes estimate   =   -1134.24092059 Ry
     estimated scf accuracy    <      13.05082573 Ry

     iteration # 23     ecut=    25.00 Ry     beta= 0.10
     Davidson diagonalization with overlap
     ethr =  1.00E-02,  avg # of iterations =  1.0

     negative rho (up, down):  8.317E+00 0.000E+00

     total cpu time spent up to now is       89.0 secs

     total energy              =   -1133.52108510 Ry
     Harris-Foulkes estimate   =   -1133.90579457 Ry
     estimated scf accuracy    <      12.23048028 Ry

     iteration # 24     ecut=    25.00 Ry     beta= 0.10
     Davidson diagonalization with overlap
     ethr =  1.00E-02,  avg # of iterations =  2.0

     negative rho (up, down):  7.935E+00 0.000E+00

     total cpu time spent up to now is       92.4 secs

     total energy              =   -1134.07592588 Ry
     Harris-Foulkes estimate   =   -1134.27835490 Ry
     estimated scf accuracy    <       3.67794860 Ry

     iteration # 25     ecut=    25.00 Ry     beta= 0.10
     Davidson diagonalization with overlap
     ethr =  3.72E-03,  avg # of iterations =  2.0

     negative rho (up, down):  7.916E+00 0.000E+00

     total cpu time spent up to now is       95.8 secs

     total energy              =   -1133.87999467 Ry
     Harris-Foulkes estimate   =   -1134.18694699 Ry
     estimated scf accuracy    <       3.75409797 Ry

     iteration # 26     ecut=    25.00 Ry     beta= 0.10
     Davidson diagonalization with overlap
     ethr =  3.72E-03,  avg # of iterations =  1.0

     negative rho (up, down):  8.343E+00 0.000E+00

     total cpu time spent up to now is       99.1 secs

     total energy              =   -1133.76668256 Ry
     Harris-Foulkes estimate   =   -1133.90013786 Ry
     estimated scf accuracy    <       2.79380682 Ry

     iteration # 27     ecut=    25.00 Ry     beta= 0.10
     Davidson diagonalization with overlap
     ethr =  2.82E-03,  avg # of iterations =  2.0

     negative rho (up, down):  8.517E+00 0.000E+00

     total cpu time spent up to now is      102.5 secs

     total energy              =   -1133.75330135 Ry
     Harris-Foulkes estimate   =   -1133.79672932 Ry
     estimated scf accuracy    <       1.37175626 Ry

     iteration # 28     ecut=    25.00 Ry     beta= 0.10
     Davidson diagonalization with overlap
     ethr =  1.39E-03,  avg # of iterations =  2.4

     negative rho (up, down):  8.517E+00 0.000E+00

     total cpu time spent up to now is      106.0 secs

     total energy              =   -1133.78574799 Ry
     Harris-Foulkes estimate   =   -1133.77721190 Ry
     estimated scf accuracy    <       1.82070296 Ry

     iteration # 29     ecut=    25.00 Ry     beta= 0.10
     Davidson diagonalization with overlap
     ethr =  1.39E-03,  avg # of iterations =  1.0

     negative rho (up, down):  8.625E+00 0.000E+00

     total cpu time spent up to now is      109.3 secs

     total energy              =   -1133.76027704 Ry
     Harris-Foulkes estimate   =   -1133.78834135 Ry
     estimated scf accuracy    <       1.93057768 Ry

     iteration # 30     ecut=    25.00 Ry     beta= 0.10
     Davidson diagonalization with overlap
     ethr =  1.39E-03,  avg # of iterations =  2.0

     negative rho (up, down):  8.619E+00 0.000E+00

     total cpu time spent up to now is      112.8 secs

     total energy              =   -1133.79012076 Ry
     Harris-Foulkes estimate   =   -1133.76916086 Ry
     estimated scf accuracy    <       1.60278696 Ry

     iteration # 31     ecut=    25.00 Ry     beta= 0.10
     Davidson diagonalization with overlap
     ethr =  1.39E-03,  avg # of iterations =  1.0

     negative rho (up, down):  8.639E+00 0.000E+00

     total cpu time spent up to now is      116.1 secs

     total energy              =   -1133.80525906 Ry
     Harris-Foulkes estimate   =   -1133.79429062 Ry
     estimated scf accuracy    <       1.98279207 Ry

     iteration # 32     ecut=    25.00 Ry     beta= 0.10
     Davidson diagonalization with overlap
     ethr =  1.39E-03,  avg # of iterations =  1.0

     negative rho (up, down):  8.648E+00 0.000E+00

     total cpu time spent up to now is      119.4 secs

     total energy              =   -1133.78861851 Ry
     Harris-Foulkes estimate   =   -1133.80832390 Ry
     estimated scf accuracy    <       1.96703704 Ry

     iteration # 33     ecut=    25.00 Ry     beta= 0.10
     Davidson diagonalization with overlap
     ethr =  1.39E-03,  avg # of iterations =  1.0

     negative rho (up, down):  8.656E+00 0.000E+00

     total cpu time spent up to now is      122.8 secs

     total energy              =   -1133.80596219 Ry
     Harris-Foulkes estimate   =   -1133.79127710 Ry
     estimated scf accuracy    <       1.62514489 Ry

     iteration # 34     ecut=    25.00 Ry     beta= 0.10
     Davidson diagonalization with overlap
     ethr =  1.39E-03,  avg # of iterations =  1.0

     negative rho (up, down):  8.648E+00 0.000E+00

     total cpu time spent up to now is      126.1 secs

     total energy              =   -1133.76418924 Ry
     Harris-Foulkes estimate   =   -1133.80843790 Ry
     estimated scf accuracy    <       1.76292927 Ry

     iteration # 35     ecut=    25.00 Ry     beta= 0.10
     Davidson diagonalization with overlap
     ethr =  1.39E-03,  avg # of iterations =  2.0

     negative rho (up, down):  8.628E+00 0.000E+00

     total cpu time spent up to now is      129.5 secs

     total energy              =   -1133.79217301 Ry
     Harris-Foulkes estimate   =   -1133.77874001 Ry
     estimated scf accuracy    <       0.71361010 Ry

     iteration # 36     ecut=    25.00 Ry     beta= 0.10
     Davidson diagonalization with overlap
     ethr =  7.21E-04,  avg # of iterations =  2.3

     negative rho (up, down):  8.632E+00 0.000E+00

     total cpu time spent up to now is      132.9 secs

     total energy              =   -1133.81500320 Ry
     Harris-Foulkes estimate   =   -1133.79736681 Ry
     estimated scf accuracy    <       1.14503128 Ry

     iteration # 37     ecut=    25.00 Ry     beta= 0.10
     Davidson diagonalization with overlap
     ethr =  7.21E-04,  avg # of iterations =  2.7

     negative rho (up, down):  8.626E+00 0.000E+00

     total cpu time spent up to now is      136.4 secs

     total energy              =   -1133.78543792 Ry
     Harris-Foulkes estimate   =   -1133.81717666 Ry
     estimated scf accuracy    <       1.49428076 Ry

     iteration # 38     ecut=    25.00 Ry     beta= 0.10
     Davidson diagonalization with overlap
     ethr =  7.21E-04,  avg # of iterations =  2.0

     negative rho (up, down):  8.614E+00 0.000E+00

     total cpu time spent up to now is      139.9 secs

     total energy              =   -1133.74631700 Ry
     Harris-Foulkes estimate   =   -1133.78930505 Ry
     estimated scf accuracy    <       1.11917236 Ry

     iteration # 39     ecut=    25.00 Ry     beta= 0.10
     Davidson diagonalization with overlap
     ethr =  7.21E-04,  avg # of iterations =  2.0

     negative rho (up, down):  8.610E+00 0.000E+00

     total cpu time spent up to now is      143.3 secs

     total energy              =   -1133.74379269 Ry
     Harris-Foulkes estimate   =   -1133.75224008 Ry
     estimated scf accuracy    <       0.85562048 Ry

     iteration # 40     ecut=    25.00 Ry     beta= 0.10
     Davidson diagonalization with overlap
     ethr =  7.21E-04,  avg # of iterations =  1.0

     negative rho (up, down):  8.593E+00 0.000E+00

     total cpu time spent up to now is      146.6 secs

     total energy              =   -1133.74563649 Ry
     Harris-Foulkes estimate   =   -1133.74477835 Ry
     estimated scf accuracy    <       0.86300266 Ry

     iteration # 41     ecut=    25.00 Ry     beta= 0.10
     Davidson diagonalization with overlap
     ethr =  7.21E-04,  avg # of iterations =  1.0

     negative rho (up, down):  8.581E+00 0.000E+00

     total cpu time spent up to now is      150.0 secs

     total energy              =   -1133.73394428 Ry
     Harris-Foulkes estimate   =   -1133.74649785 Ry
     estimated scf accuracy    <       0.92440361 Ry

     iteration # 42     ecut=    25.00 Ry     beta= 0.10
     Davidson diagonalization with overlap
     ethr =  7.21E-04,  avg # of iterations =  1.0

     negative rho (up, down):  8.588E+00 0.000E+00

     total cpu time spent up to now is      153.3 secs

     total energy              =   -1133.74451359 Ry
     Harris-Foulkes estimate   =   -1133.73438915 Ry
     estimated scf accuracy    <       0.86181931 Ry

     iteration # 43     ecut=    25.00 Ry     beta= 0.10
     Davidson diagonalization with overlap
     ethr =  7.21E-04,  avg # of iterations =  2.0

     negative rho (up, down):  8.617E+00 0.000E+00

     total cpu time spent up to now is      156.8 secs

     total energy              =   -1133.74135697 Ry
     Harris-Foulkes estimate   =   -1133.75854702 Ry
     estimated scf accuracy    <       1.16148350 Ry

     iteration # 44     ecut=    25.00 Ry     beta= 0.10
     Davidson diagonalization with overlap
     ethr =  7.21E-04,  avg # of iterations =  2.0

     negative rho (up, down):  8.599E+00 0.000E+00

     total cpu time spent up to now is      160.3 secs

     total energy              =   -1133.73639952 Ry
     Harris-Foulkes estimate   =   -1133.74763432 Ry
     estimated scf accuracy    <       1.44121582 Ry

     iteration # 45     ecut=    25.00 Ry     beta= 0.10
     Davidson diagonalization with overlap
     ethr =  7.21E-04,  avg # of iterations =  2.0

     negative rho (up, down):  8.642E+00 0.000E+00

     total cpu time spent up to now is      163.8 secs

     total energy              =   -1133.75099551 Ry
     Harris-Foulkes estimate   =   -1133.74561760 Ry
     estimated scf accuracy    <       1.22568255 Ry

     iteration # 46     ecut=    25.00 Ry     beta= 0.10
     Davidson diagonalization with overlap
     ethr =  7.21E-04,  avg # of iterations =  2.0

     negative rho (up, down):  8.591E+00 0.000E+00

     total cpu time spent up to now is      167.5 secs

     total energy              =   -1133.67133172 Ry
     Harris-Foulkes estimate   =   -1133.77732040 Ry
     estimated scf accuracy    <       1.85719138 Ry

     iteration # 47     ecut=    25.00 Ry     beta= 0.10
     Davidson diagonalization with overlap
     ethr =  7.21E-04,  avg # of iterations =  2.0

     negative rho (up, down):  8.578E+00 0.000E+00

     total cpu time spent up to now is      171.2 secs

     total energy              =   -1133.68392875 Ry
     Harris-Foulkes estimate   =   -1133.69054062 Ry
     estimated scf accuracy    <       0.64112698 Ry

     iteration # 48     ecut=    25.00 Ry     beta= 0.10
     Davidson diagonalization with overlap
     ethr =  6.48E-04,  avg # of iterations =  1.0

     negative rho (up, down):  8.538E+00 0.000E+00

     total cpu time spent up to now is      174.7 secs

     total energy              =   -1133.68650959 Ry
     Harris-Foulkes estimate   =   -1133.68507308 Ry
     estimated scf accuracy    <       0.74275676 Ry

     iteration # 49     ecut=    25.00 Ry     beta= 0.10
     Davidson diagonalization with overlap
     ethr =  6.48E-04,  avg # of iterations =  2.0

     negative rho (up, down):  8.520E+00 0.000E+00

     total cpu time spent up to now is      178.2 secs

     total energy              =   -1133.66765119 Ry
     Harris-Foulkes estimate   =   -1133.69333790 Ry
     estimated scf accuracy    <       0.72899566 Ry

     iteration # 50     ecut=    25.00 Ry     beta= 0.10
     Davidson diagonalization with overlap
     ethr =  6.48E-04,  avg # of iterations =  2.0

     negative rho (up, down):  8.511E+00 0.000E+00

     total cpu time spent up to now is      181.7 secs

     total energy              =   -1133.66227546 Ry
     Harris-Foulkes estimate   =   -1133.67780475 Ry
     estimated scf accuracy    <       0.47319074 Ry

     iteration # 51     ecut=    25.00 Ry     beta= 0.10
     Davidson diagonalization with overlap
     ethr =  4.78E-04,  avg # of iterations =  2.0

     negative rho (up, down):  8.523E+00 0.000E+00

     total cpu time spent up to now is      185.1 secs

     total energy              =   -1133.69969328 Ry
     Harris-Foulkes estimate   =   -1133.67320254 Ry
     estimated scf accuracy    <       0.46615118 Ry

     iteration # 52     ecut=    25.00 Ry     beta= 0.10
     Davidson diagonalization with overlap
     ethr =  4.71E-04,  avg # of iterations =  2.0

     negative rho (up, down):  8.550E+00 0.000E+00

     total cpu time spent up to now is      188.8 secs

     total energy              =   -1133.73978296 Ry
     Harris-Foulkes estimate   =   -1133.74210527 Ry
     estimated scf accuracy    <       1.31512365 Ry

     iteration # 53     ecut=    25.00 Ry     beta= 0.10
     Davidson diagonalization with overlap
     ethr =  4.71E-04,  avg # of iterations =  2.0

     negative rho (up, down):  8.525E+00 0.000E+00

     total cpu time spent up to now is      192.3 secs

     total energy              =   -1133.68086278 Ry
     Harris-Foulkes estimate   =   -1133.75390257 Ry
     estimated scf accuracy    <       1.20679435 Ry

     iteration # 54     ecut=    25.00 Ry     beta= 0.10
     Davidson diagonalization with overlap
     ethr =  4.71E-04,  avg # of iterations =  2.0

     negative rho (up, down):  8.524E+00 0.000E+00

     total cpu time spent up to now is      195.8 secs

     total energy              =   -1133.71096915 Ry
     Harris-Foulkes estimate   =   -1133.70390116 Ry
     estimated scf accuracy    <       0.88112619 Ry

     iteration # 55     ecut=    25.00 Ry     beta= 0.10
     Davidson diagonalization with overlap
     ethr =  4.71E-04,  avg # of iterations =  2.0

     negative rho (up, down):  8.508E+00 0.000E+00

     total cpu time spent up to now is      199.6 secs

     total energy              =   -1133.66404136 Ry
     Harris-Foulkes estimate   =   -1133.71361129 Ry
     estimated scf accuracy    <       1.00334830 Ry

     iteration # 56     ecut=    25.00 Ry     beta= 0.10
     Davidson diagonalization with overlap
     ethr =  4.71E-04,  avg # of iterations =  2.0

     negative rho (up, down):  8.566E+00 0.000E+00

     total cpu time spent up to now is      203.1 secs

     total energy              =   -1133.62802317 Ry
     Harris-Foulkes estimate   =   -1133.68746054 Ry
     estimated scf accuracy    <       0.70969326 Ry

     iteration # 57     ecut=    25.00 Ry     beta= 0.10
     Davidson diagonalization with overlap
     ethr =  4.71E-04,  avg # of iterations =  2.4

     negative rho (up, down):  8.605E+00 0.000E+00

     total cpu time spent up to now is      206.7 secs

     total energy              =   -1133.70166172 Ry
     Harris-Foulkes estimate   =   -1133.67743831 Ry
     estimated scf accuracy    <       0.38474249 Ry

     iteration # 58     ecut=    25.00 Ry     beta= 0.10
     Davidson diagonalization with overlap
     ethr =  3.89E-04,  avg # of iterations =  2.0

     negative rho (up, down):  8.595E+00 0.000E+00

     total cpu time spent up to now is      210.4 secs

     total energy              =   -1133.69514795 Ry
     Harris-Foulkes estimate   =   -1133.71395135 Ry
     estimated scf accuracy    <       0.48668365 Ry

     iteration # 59     ecut=    25.00 Ry     beta= 0.10
     Davidson diagonalization with overlap
     ethr =  3.89E-04,  avg # of iterations =  2.0

     negative rho (up, down):  8.588E+00 0.000E+00

     total cpu time spent up to now is      214.0 secs

     total energy              =   -1133.69692172 Ry
     Harris-Foulkes estimate   =   -1133.70375204 Ry
     estimated scf accuracy    <       0.20168109 Ry

     iteration # 60     ecut=    25.00 Ry     beta= 0.10
     Davidson diagonalization with overlap
     ethr =  2.04E-04,  avg # of iterations =  2.0

     negative rho (up, down):  8.587E+00 0.000E+00

     total cpu time spent up to now is      217.4 secs

     total energy              =   -1133.70066800 Ry
     Harris-Foulkes estimate   =   -1133.70322236 Ry
     estimated scf accuracy    <       0.27643283 Ry

     iteration # 61     ecut=    25.00 Ry     beta= 0.10
     Davidson diagonalization with overlap
     ethr =  2.04E-04,  avg # of iterations =  2.0

     negative rho (up, down):  8.572E+00 0.000E+00

     total cpu time spent up to now is      220.9 secs

     total energy              =   -1133.70643217 Ry
     Harris-Foulkes estimate   =   -1133.70451416 Ry
     estimated scf accuracy    <       0.38336725 Ry

     iteration # 62     ecut=    25.00 Ry     beta= 0.10
     Davidson diagonalization with overlap
     ethr =  2.04E-04,  avg # of iterations =  2.0

     negative rho (up, down):  8.579E+00 0.000E+00

     total cpu time spent up to now is      224.4 secs

     total energy              =   -1133.73772050 Ry
     Harris-Foulkes estimate   =   -1133.72278528 Ry
     estimated scf accuracy    <       0.76569587 Ry

     iteration # 63     ecut=    25.00 Ry     beta= 0.10
     Davidson diagonalization with overlap
     ethr =  2.04E-04,  avg # of iterations =  2.0

     negative rho (up, down):  8.591E+00 0.000E+00

     total cpu time spent up to now is      227.9 secs

     total energy              =   -1133.75095699 Ry
     Harris-Foulkes estimate   =   -1133.73987303 Ry
     estimated scf accuracy    <       0.99810200 Ry

     iteration # 64     ecut=    25.00 Ry     beta= 0.10
     Davidson diagonalization with overlap
     ethr =  2.04E-04,  avg # of iterations =  2.0

     negative rho (up, down):  8.589E+00 0.000E+00

     total cpu time spent up to now is      231.4 secs

     total energy              =   -1133.71526454 Ry
     Harris-Foulkes estimate   =   -1133.75282556 Ry
     estimated scf accuracy    <       1.18349693 Ry

     iteration # 65     ecut=    25.00 Ry     beta= 0.10
     Davidson diagonalization with overlap
     ethr =  2.04E-04,  avg # of iterations =  2.7

     negative rho (up, down):  8.580E+00 0.000E+00

     total cpu time spent up to now is      235.2 secs

     total energy              =   -1133.74792422 Ry
     Harris-Foulkes estimate   =   -1133.73467224 Ry
     estimated scf accuracy    <       0.79900862 Ry

     iteration # 66     ecut=    25.00 Ry     beta= 0.10
     Davidson diagonalization with overlap
     ethr =  2.04E-04,  avg # of iterations =  2.0

     negative rho (up, down):  8.578E+00 0.000E+00

     total cpu time spent up to now is      238.8 secs

     total energy              =   -1133.75379267 Ry
     Harris-Foulkes estimate   =   -1133.75514846 Ry
     estimated scf accuracy    <       1.19472954 Ry

     iteration # 67     ecut=    25.00 Ry     beta= 0.10
     Davidson diagonalization with overlap
     ethr =  2.04E-04,  avg # of iterations =  1.0

     negative rho (up, down):  8.592E+00 0.000E+00

     total cpu time spent up to now is      242.2 secs

     total energy              =   -1133.73672915 Ry
     Harris-Foulkes estimate   =   -1133.75402858 Ry
     estimated scf accuracy    <       1.16670262 Ry

     iteration # 68     ecut=    25.00 Ry     beta= 0.10
     Davidson diagonalization with overlap
     ethr =  2.04E-04,  avg # of iterations =  2.0

     negative rho (up, down):  8.626E+00 0.000E+00

     total cpu time spent up to now is      245.8 secs

     total energy              =   -1133.73977893 Ry
     Harris-Foulkes estimate   =   -1133.74150847 Ry
     estimated scf accuracy    <       0.86987176 Ry

     iteration # 69     ecut=    25.00 Ry     beta= 0.10
     Davidson diagonalization with overlap
     ethr =  2.04E-04,  avg # of iterations =  2.5

     negative rho (up, down):  8.653E+00 0.000E+00

     total cpu time spent up to now is      249.5 secs

     total energy              =   -1133.68922433 Ry
     Harris-Foulkes estimate   =   -1133.74443117 Ry
     estimated scf accuracy    <       0.75697575 Ry

     iteration # 70     ecut=    25.00 Ry     beta= 0.10
     Davidson diagonalization with overlap
     ethr =  2.04E-04,  avg # of iterations =  3.1

     negative rho (up, down):  8.670E+00 0.000E+00

     total cpu time spent up to now is      253.2 secs

     total energy              =   -1133.70023532 Ry
     Harris-Foulkes estimate   =   -1133.72018086 Ry
     estimated scf accuracy    <       0.33290650 Ry

     iteration # 71     ecut=    25.00 Ry     beta= 0.10
     Davidson diagonalization with overlap
     ethr =  2.04E-04,  avg # of iterations =  3.0

     negative rho (up, down):  8.696E+00 0.000E+00

     total cpu time spent up to now is      256.9 secs

     total energy              =   -1133.66655127 Ry
     Harris-Foulkes estimate   =   -1133.74310700 Ry
     estimated scf accuracy    <       0.69528122 Ry

     iteration # 72     ecut=    25.00 Ry     beta= 0.10
     Davidson diagonalization with overlap
     ethr =  2.04E-04,  avg # of iterations =  3.0

     negative rho (up, down):  8.665E+00 0.000E+00

     total cpu time spent up to now is      260.6 secs

     total energy              =   -1133.71573740 Ry
     Harris-Foulkes estimate   =   -1133.71909598 Ry
     estimated scf accuracy    <       0.40379858 Ry

     iteration # 73     ecut=    25.00 Ry     beta= 0.10
     Davidson diagonalization with overlap
     ethr =  2.04E-04,  avg # of iterations =  2.0

     negative rho (up, down):  8.689E+00 0.000E+00

     total cpu time spent up to now is      264.2 secs

     total energy              =   -1133.67340416 Ry
     Harris-Foulkes estimate   =   -1133.72407487 Ry
     estimated scf accuracy    <       0.58867678 Ry

     iteration # 74     ecut=    25.00 Ry     beta= 0.10
     Davidson diagonalization with overlap
     ethr =  2.04E-04,  avg # of iterations =  3.0

     negative rho (up, down):  8.700E+00 0.000E+00

     total cpu time spent up to now is      268.0 secs

     total energy              =   -1133.71422562 Ry
     Harris-Foulkes estimate   =   -1133.71187910 Ry
     estimated scf accuracy    <       0.20287423 Ry

     iteration # 75     ecut=    25.00 Ry     beta= 0.10
     Davidson diagonalization with overlap
     ethr =  2.04E-04,  avg # of iterations =  2.0

     negative rho (up, down):  8.691E+00 0.000E+00

     total cpu time spent up to now is      271.7 secs

     total energy              =   -1133.70653113 Ry
     Harris-Foulkes estimate   =   -1133.71801217 Ry
     estimated scf accuracy    <       0.32502608 Ry

     iteration # 76     ecut=    25.00 Ry     beta= 0.10
     Davidson diagonalization with overlap
     ethr =  2.04E-04,  avg # of iterations =  2.0

     negative rho (up, down):  8.700E+00 0.000E+00

     total cpu time spent up to now is      275.2 secs

     total energy              =   -1133.71761655 Ry
     Harris-Foulkes estimate   =   -1133.71244785 Ry
     estimated scf accuracy    <       0.25472702 Ry

     iteration # 77     ecut=    25.00 Ry     beta= 0.10
     Davidson diagonalization with overlap
     ethr =  2.04E-04,  avg # of iterations =  1.0

     negative rho (up, down):  8.695E+00 0.000E+00

     total cpu time spent up to now is      278.6 secs

     total energy              =   -1133.72176639 Ry
     Harris-Foulkes estimate   =   -1133.71945153 Ry
     estimated scf accuracy    <       0.37034265 Ry

     iteration # 78     ecut=    25.00 Ry     beta= 0.10
     Davidson diagonalization with overlap
     ethr =  2.04E-04,  avg # of iterations =  1.0

     negative rho (up, down):  8.688E+00 0.000E+00

     total cpu time spent up to now is      282.0 secs

     total energy              =   -1133.72168711 Ry
     Harris-Foulkes estimate   =   -1133.72287549 Ry
     estimated scf accuracy    <       0.45842030 Ry

     iteration # 79     ecut=    25.00 Ry     beta= 0.10
     Davidson diagonalization with overlap
     ethr =  2.04E-04,  avg # of iterations =  1.0

     negative rho (up, down):  8.698E+00 0.000E+00

     total cpu time spent up to now is      285.5 secs

     total energy              =   -1133.68999850 Ry
     Harris-Foulkes estimate   =   -1133.72218528 Ry
     estimated scf accuracy    <       0.46445150 Ry

     iteration # 80     ecut=    25.00 Ry     beta= 0.10
     Davidson diagonalization with overlap
     ethr =  2.04E-04,  avg # of iterations =  2.0

     negative rho (up, down):  8.689E+00 0.000E+00

     total cpu time spent up to now is      289.1 secs

     total energy              =   -1133.70426775 Ry
     Harris-Foulkes estimate   =   -1133.70499010 Ry
     estimated scf accuracy    <       0.12851470 Ry

     iteration # 81     ecut=    25.00 Ry     beta= 0.10
     Davidson diagonalization with overlap
     ethr =  1.30E-04,  avg # of iterations =  2.0

     negative rho (up, down):  8.700E+00 0.000E+00

     total cpu time spent up to now is      292.6 secs

     total energy              =   -1133.70601447 Ry
     Harris-Foulkes estimate   =   -1133.70652732 Ry
     estimated scf accuracy    <       0.17292850 Ry

     iteration # 82     ecut=    25.00 Ry     beta= 0.10
     Davidson diagonalization with overlap
     ethr =  1.30E-04,  avg # of iterations =  2.0

     negative rho (up, down):  8.703E+00 0.000E+00

     total cpu time spent up to now is      296.3 secs

     total energy              =   -1133.71779987 Ry
     Harris-Foulkes estimate   =   -1133.71189822 Ry
     estimated scf accuracy    <       0.42398261 Ry

     iteration # 83     ecut=    25.00 Ry     beta= 0.10
     Davidson diagonalization with overlap
     ethr =  1.30E-04,  avg # of iterations =  2.0

     negative rho (up, down):  8.703E+00 0.000E+00

     total cpu time spent up to now is      299.8 secs

     total energy              =   -1133.73149797 Ry
     Harris-Foulkes estimate   =   -1133.72428086 Ry
     estimated scf accuracy    <       0.39158567 Ry

     iteration # 84     ecut=    25.00 Ry     beta= 0.10
     Davidson diagonalization with overlap
     ethr =  1.30E-04,  avg # of iterations =  2.0

     negative rho (up, down):  8.679E+00 0.000E+00

     total cpu time spent up to now is      303.4 secs

     total energy              =   -1133.69727412 Ry
     Harris-Foulkes estimate   =   -1133.73851510 Ry
     estimated scf accuracy    <       0.64054116 Ry

     iteration # 85     ecut=    25.00 Ry     beta= 0.10
     Davidson diagonalization with overlap
     ethr =  1.30E-04,  avg # of iterations =  2.0

     negative rho (up, down):  8.683E+00 0.000E+00

     total cpu time spent up to now is      307.0 secs

     total energy              =   -1133.69676937 Ry
     Harris-Foulkes estimate   =   -1133.71291619 Ry
     estimated scf accuracy    <       0.50618617 Ry

     iteration # 86     ecut=    25.00 Ry     beta= 0.10
     Davidson diagonalization with overlap
     ethr =  1.30E-04,  avg # of iterations =  2.0

     negative rho (up, down):  8.683E+00 0.000E+00

     total cpu time spent up to now is      310.7 secs

     total energy              =   -1133.70215708 Ry
     Harris-Foulkes estimate   =   -1133.70161825 Ry
     estimated scf accuracy    <       0.48117174 Ry

     iteration # 87     ecut=    25.00 Ry     beta= 0.10
     Davidson diagonalization with overlap
     ethr =  1.30E-04,  avg # of iterations =  1.0

     negative rho (up, down):  8.684E+00 0.000E+00

     total cpu time spent up to now is      314.3 secs

     total energy              =   -1133.66877365 Ry
     Harris-Foulkes estimate   =   -1133.70251987 Ry
     estimated scf accuracy    <       0.48054626 Ry

     iteration # 88     ecut=    25.00 Ry     beta= 0.10
     Davidson diagonalization with overlap
     ethr =  1.30E-04,  avg # of iterations =  2.0

     negative rho (up, down):  8.678E+00 0.000E+00

     total cpu time spent up to now is      317.8 secs

     total energy              =   -1133.63649887 Ry
     Harris-Foulkes estimate   =   -1133.67525770 Ry
     estimated scf accuracy    <       0.33268566 Ry

     iteration # 89     ecut=    25.00 Ry     beta= 0.10
     Davidson diagonalization with overlap
     ethr =  1.30E-04,  avg # of iterations =  2.0

     negative rho (up, down):  8.681E+00 0.000E+00

     total cpu time spent up to now is      321.4 secs

     total energy              =   -1133.64986639 Ry
     Harris-Foulkes estimate   =   -1133.64929468 Ry
     estimated scf accuracy    <       0.17830132 Ry

     iteration # 90     ecut=    25.00 Ry     beta= 0.10
     Davidson diagonalization with overlap
     ethr =  1.30E-04,  avg # of iterations =  2.0

     negative rho (up, down):  8.694E+00 0.000E+00

     total cpu time spent up to now is      324.9 secs

     total energy              =   -1133.65498256 Ry
     Harris-Foulkes estimate   =   -1133.65153705 Ry
     estimated scf accuracy    <       0.17264106 Ry

     iteration # 91     ecut=    25.00 Ry     beta= 0.10
     Davidson diagonalization with overlap
     ethr =  1.30E-04,  avg # of iterations =  2.8

     negative rho (up, down):  8.714E+00 0.000E+00

     total cpu time spent up to now is      328.6 secs

     total energy              =   -1133.71425325 Ry
     Harris-Foulkes estimate   =   -1133.69381066 Ry
     estimated scf accuracy    <       0.55082674 Ry

     iteration # 92     ecut=    25.00 Ry     beta= 0.10
     Davidson diagonalization with overlap
     ethr =  1.30E-04,  avg # of iterations =  2.0

     negative rho (up, down):  8.687E+00 0.000E+00

     total cpu time spent up to now is      332.2 secs

     total energy              =   -1133.69132120 Ry
     Harris-Foulkes estimate   =   -1133.72124576 Ry
     estimated scf accuracy    <       0.85341560 Ry

     iteration # 93     ecut=    25.00 Ry     beta= 0.10
     Davidson diagonalization with overlap
     ethr =  1.30E-04,  avg # of iterations =  2.0

     negative rho (up, down):  8.684E+00 0.000E+00

     total cpu time spent up to now is      335.9 secs

     total energy              =   -1133.70089730 Ry
     Harris-Foulkes estimate   =   -1133.69847701 Ry
     estimated scf accuracy    <       0.50971409 Ry

     iteration # 94     ecut=    25.00 Ry     beta= 0.10
     Davidson diagonalization with overlap
     ethr =  1.30E-04,  avg # of iterations =  2.0

     negative rho (up, down):  8.674E+00 0.000E+00

     total cpu time spent up to now is      339.6 secs

     total energy              =   -1133.68935795 Ry
     Harris-Foulkes estimate   =   -1133.70212401 Ry
     estimated scf accuracy    <       0.57995197 Ry

     iteration # 95     ecut=    25.00 Ry     beta= 0.10
     Davidson diagonalization with overlap
     ethr =  1.30E-04,  avg # of iterations =  2.0

     negative rho (up, down):  8.626E+00 0.000E+00

     total cpu time spent up to now is      343.1 secs

     total energy              =   -1133.61326757 Ry
     Harris-Foulkes estimate   =   -1133.69328452 Ry
     estimated scf accuracy    <       0.52504251 Ry

     iteration # 96     ecut=    25.00 Ry     beta= 0.10
     Davidson diagonalization with overlap
     ethr =  1.30E-04,  avg # of iterations =  2.1

     negative rho (up, down):  8.614E+00 0.000E+00

     total cpu time spent up to now is      347.0 secs

     total energy              =   -1133.63806865 Ry
     Harris-Foulkes estimate   =   -1133.64906923 Ry
     estimated scf accuracy    <       0.15417372 Ry

     iteration # 97     ecut=    25.00 Ry     beta= 0.10
     Davidson diagonalization with overlap
     ethr =  1.30E-04,  avg # of iterations =  2.6

     negative rho (up, down):  8.605E+00 0.000E+00

     total cpu time spent up to now is      350.7 secs

     total energy              =   -1133.63998950 Ry
     Harris-Foulkes estimate   =   -1133.64197117 Ry
     estimated scf accuracy    <       0.26683538 Ry

     iteration # 98     ecut=    25.00 Ry     beta= 0.10
     Davidson diagonalization with overlap
     ethr =  1.30E-04,  avg # of iterations =  1.0

     negative rho (up, down):  8.595E+00 0.000E+00

     total cpu time spent up to now is      354.1 secs

     total energy              =   -1133.63418059 Ry
     Harris-Foulkes estimate   =   -1133.64040096 Ry
     estimated scf accuracy    <       0.28747373 Ry

     iteration # 99     ecut=    25.00 Ry     beta= 0.10
     Davidson diagonalization with overlap
     ethr =  1.30E-04,  avg # of iterations =  1.0

     negative rho (up, down):  8.602E+00 0.000E+00

     total cpu time spent up to now is      357.6 secs

     total energy              =   -1133.63682363 Ry
     Harris-Foulkes estimate   =   -1133.63486075 Ry
     estimated scf accuracy    <       0.30323634 Ry

     iteration #100     ecut=    25.00 Ry     beta= 0.10
     Davidson diagonalization with overlap
     ethr =  1.30E-04,  avg # of iterations =  2.0

     negative rho (up, down):  8.624E+00 0.000E+00

     total cpu time spent up to now is      361.2 secs

     total energy              =   -1133.64201099 Ry
     Harris-Foulkes estimate   =   -1133.63815365 Ry
     estimated scf accuracy    <       0.26959544 Ry

     End of self-consistent calculation

     convergence NOT achieved after 100 iterations: stopping

     Writing output data file uZAZKakjtspNwunz.save/

     init_run     :      3.41s CPU      3.43s WALL (       1 calls)
     electrons    :    357.09s CPU    357.51s WALL (       1 calls)

     Called by init_run:
     wfcinit      :      2.33s CPU      2.33s WALL (       1 calls)
     potinit      :      0.94s CPU      0.96s WALL (       1 calls)
     hinit0       :      0.11s CPU      0.11s WALL (       1 calls)

     Called by electrons:
     c_bands      :    225.78s CPU    226.13s WALL (     100 calls)
     sum_band     :     31.85s CPU     31.91s WALL (     100 calls)
     v_of_rho     :      0.81s CPU      0.82s WALL (     101 calls)
     newd         :      2.43s CPU      2.43s WALL (     101 calls)
     PAW_pot      :     96.92s CPU     96.94s WALL (     101 calls)
     mix_rho      :      0.19s CPU      0.20s WALL (     100 calls)

     Called by c_bands:
     init_us_2    :      1.47s CPU      1.48s WALL (    2814 calls)
     cegterg      :    221.32s CPU    221.64s WALL (    1400 calls)

     Called by sum_band:
     sum_band:bec :      0.41s CPU      0.41s WALL (    1400 calls)
     addusdens    :      1.01s CPU      1.01s WALL (     100 calls)

     Called by *egterg:
     h_psi        :    112.77s CPU    113.04s WALL (    4243 calls)
     s_psi        :     36.81s CPU     36.82s WALL (    4243 calls)
     g_psi        :      0.28s CPU      0.28s WALL (    2829 calls)
     cdiaghg      :     22.77s CPU     22.78s WALL (    4229 calls)

     Called by h_psi:
     h_psi:pot    :    112.48s CPU    112.75s WALL (    4243 calls)
     h_psi:calbec :     46.19s CPU     46.23s WALL (    4243 calls)
     vloc_psi     :     29.48s CPU     29.70s WALL (    4243 calls)
     add_vuspsi   :     36.80s CPU     36.81s WALL (    4243 calls)

     General routines
     calbec       :     68.33s CPU     68.41s WALL (    5643 calls)
     fft          :      0.30s CPU      0.30s WALL (    1313 calls)
     ffts         :      0.01s CPU      0.01s WALL (     201 calls)
     fftw         :     32.69s CPU     32.93s WALL (  433026 calls)
     interpolate  :      0.03s CPU      0.03s WALL (     101 calls)
     davcio       :      0.00s CPU      0.01s WALL (      36 calls)

     Parallel routines

     PWSCF        :   6m 0.79s CPU   6m 1.25s WALL


   This run was terminated on:  17: 2:25  18Mar2020            

=------------------------------------------------------------------------------=
   JOB DONE.
=------------------------------------------------------------------------------=
