
     Program PWSCF v.6.4.1 starts on 18Mar2020 at 16:45:43 

     This program is part of the open-source Quantum ESPRESSO suite
     for quantum simulation of materials; please cite
         "P. Giannozzi et al., J. Phys.:Condens. Matter 21 395502 (2009);
         "P. Giannozzi et al., J. Phys.:Condens. Matter 29 465901 (2017);
          URL http://www.quantum-espresso.org", 
     in publications or presentations arising from this work. More details at
     http://www.quantum-espresso.org/quote

     Parallel version (MPI), running on     1 processors

     MPI processes distributed on     1 nodes
     Reading input from wd/configs/1/config_0003.in
Warning: card &IONS ignored
Warning: card ION_DYNAMICS = 'BFGS', ignored
Warning: card / ignored
Warning: card &CELL ignored
Warning: card CELL_DYNAMICS = 'BFGS', ignored
Warning: card CELL_FACTOR = 2.0, ignored
Warning: card PRESS = 0.0, ignored
Warning: card / ignored

     Current dimensions of program PWSCF are:
     Max number of different atomic species (ntypx) = 10
     Max number of k-points (npk) =  40000
     Max angular momentum in pseudopotentials (lmaxx) =  3
               file Al.pbe-nl-kjpaw_psl.1.0.0.UPF: wavefunction(s)  3S 3P renormalized

     Subspace diagonalization in iterative solution of the eigenvalue problem:
     a serial algorithm will be used


     G-vector sticks info
     --------------------
     sticks:   dense  smooth     PW     G-vecs:    dense   smooth      PW
     Sum         577     441    145                10395     7153    1357



     bravais-lattice index     =            0
     lattice parameter (alat)  =       7.5552  a.u.
     unit-cell volume          =     431.2663 (a.u.)^3
     number of atoms/cell      =           31
     number of atomic types    =            1
     number of electrons       =        93.00
     number of Kohn-Sham states=           56
     kinetic-energy cutoff     =      25.0000  Ry
     charge density cutoff     =     126.0000  Ry
     convergence threshold     =      1.0E-06
     mixing beta               =       0.1000
     number of iterations used =           10  TF        mixing
     Exchange-correlation      = SLA PW PBX PBC ( 1  4  3  4 0 0)

     celldm(1)=   7.555244  celldm(2)=   0.000000  celldm(3)=   0.000000
     celldm(4)=   0.000000  celldm(5)=   0.000000  celldm(6)=   0.000000

     crystal axes: (cart. coord. in units of alat)
               a(1) = (   1.000000   0.000000   0.000000 )  
               a(2) = (   0.000000   1.000000   0.000000 )  
               a(3) = (   0.000000   0.000000   1.000000 )  

     reciprocal axes: (cart. coord. in units 2 pi/alat)
               b(1) = (  1.000000  0.000000  0.000000 )  
               b(2) = (  0.000000  1.000000  0.000000 )  
               b(3) = (  0.000000  0.000000  1.000000 )  


     PseudoPot. # 1 for Al read from file:
     /opt/pp/Al.pbe-nl-kjpaw_psl.1.0.0.UPF
     MD5 check sum: 1b67f78b73fe58c7924490f171ce8a1e
     Pseudo is Projector augmented-wave + core cor, Zval =  3.0
     Generated using "atomic" code by A. Dal Corso v.6.3
     Shape of augmentation charge: PSQ
     Using radial grid of 1135 points,  4 beta functions with: 
                l(1) =   0
                l(2) =   0
                l(3) =   1
                l(4) =   1
     Q(r) pseudized with 0 coefficients 


     atomic species   valence    mass     pseudopotential
        Al             3.00    26.98200     Al( 1.00)

     No symmetry found



   Cartesian axes

     site n.     atom                  positions (alat units)
         1           Al  tau(   1) = (  -0.0014557  -0.0012851  -0.0010486  )
         2           Al  tau(   2) = (   0.2489982   0.2479084  -0.0010393  )
         3           Al  tau(   3) = (   0.2483010  -0.0012003   0.2498709  )
         4           Al  tau(   4) = (  -0.0014044   0.2495605   0.2494190  )
         5           Al  tau(   5) = (  -0.0002895  -0.0003044   0.4981953  )
         6           Al  tau(   6) = (   0.2491592   0.2479996   0.4986909  )
         7           Al  tau(   7) = (   0.2487887  -0.0007015   0.7482238  )
         8           Al  tau(   8) = (  -0.0011016   0.2491358   0.7495258  )
         9           Al  tau(   9) = (  -0.0003636   0.4991122  -0.0013860  )
        10           Al  tau(  10) = (   0.2492408   0.7493888   0.0003151  )
        11           Al  tau(  11) = (   0.2494408   0.4991164   0.2496913  )
        12           Al  tau(  12) = (  -0.0011686   0.7488605   0.2487788  )
        13           Al  tau(  13) = (  -0.0008783   0.4993077   0.4990767  )
        14           Al  tau(  14) = (   0.2485310   0.7489321   0.4981535  )
        15           Al  tau(  15) = (   0.2500370   0.4978249   0.7474476  )
        16           Al  tau(  16) = (  -0.0026495   0.7474860   0.7486487  )
        17           Al  tau(  17) = (   0.4994998  -0.0017295  -0.0014801  )
        18           Al  tau(  18) = (   0.7483221   0.2490567  -0.0022661  )
        19           Al  tau(  19) = (   0.7472025  -0.0017112   0.2489882  )
        20           Al  tau(  20) = (   0.4985760   0.2485202   0.2479961  )
        21           Al  tau(  21) = (   0.4983576  -0.0001394   0.4985656  )
        22           Al  tau(  22) = (   0.7489528  -0.0025532   0.7484835  )
        23           Al  tau(  23) = (   0.4988209   0.2483989   0.7487801  )
        24           Al  tau(  24) = (   0.4987225   0.4982172  -0.0013445  )
        25           Al  tau(  25) = (   0.7480805   0.7491437  -0.0022099  )
        26           Al  tau(  26) = (   0.7477560   0.4990719   0.2497826  )
        27           Al  tau(  27) = (   0.4990835   0.7478751   0.2484588  )
        28           Al  tau(  28) = (   0.4990312   0.4978307   0.4995223  )
        29           Al  tau(  29) = (   0.7473671   0.7490915   0.4988398  )
        30           Al  tau(  30) = (   0.7493466   0.4986248   0.7480889  )
        31           Al  tau(  31) = (   0.4984628   0.7487147   0.7492397  )

     number of k points=    14  Marzari-Vanderbilt smearing, width (Ry)=  0.0200
                       cart. coord. in units 2pi/alat
        k(    1) = (   0.1666667   0.1666667   0.1666667), wk =   0.1481481
        k(    2) = (   0.1666667   0.1666667  -0.5000000), wk =   0.1481481
        k(    3) = (   0.1666667  -0.5000000  -0.5000000), wk =   0.1481481
        k(    4) = (  -0.5000000  -0.5000000  -0.5000000), wk =   0.0740741
        k(    5) = (  -0.1666667  -0.1666667   0.1666667), wk =   0.1481481
        k(    6) = (  -0.1666667   0.1666667  -0.1666667), wk =   0.1481481
        k(    7) = (   0.1666667  -0.1666667  -0.1666667), wk =   0.1481481
        k(    8) = (  -0.1666667   0.1666667   0.5000000), wk =   0.1481481
        k(    9) = (  -0.5000000  -0.1666667   0.1666667), wk =   0.1481481
        k(   10) = (   0.5000000  -0.1666667  -0.1666667), wk =   0.1481481
        k(   11) = (  -0.1666667  -0.5000000   0.1666667), wk =   0.1481481
        k(   12) = (  -0.1666667   0.5000000  -0.1666667), wk =   0.1481481
        k(   13) = (  -0.5000000   0.1666667   0.5000000), wk =   0.1481481
        k(   14) = (  -0.5000000   0.5000000   0.1666667), wk =   0.1481481

     Dense  grid:    10395 G-vectors     FFT dimensions: (  27,  27,  27)

     Smooth grid:     7153 G-vectors     FFT dimensions: (  25,  25,  25)

     Estimated max dynamical RAM per process >      43.06 MB

     Initial potential from superposition of free atoms

     starting charge   92.92900, renormalised to   93.00000
     Starting wfcs are  124 randomized atomic wfcs
     Checking if some PAW data can be deallocated... 

     total cpu time spent up to now is        3.4 secs

     Self-consistent Calculation

     iteration #  1     ecut=    25.00 Ry     beta= 0.10
     Davidson diagonalization with overlap
     ethr =  1.00E-02,  avg # of iterations =  4.7

     total cpu time spent up to now is        9.5 secs

     total energy              =   -1056.89091956 Ry
     Harris-Foulkes estimate   =   -1058.88879252 Ry
     estimated scf accuracy    <       9.05717210 Ry

     iteration #  2     ecut=    25.00 Ry     beta= 0.10
     Davidson diagonalization with overlap
     ethr =  9.74E-03,  avg # of iterations =  1.0

     total cpu time spent up to now is       12.4 secs

     total energy              =   -1049.63972657 Ry
     Harris-Foulkes estimate   =   -1056.95685114 Ry
     estimated scf accuracy    <       7.31539405 Ry

     iteration #  3     ecut=    25.00 Ry     beta= 0.10
     Davidson diagonalization with overlap
     ethr =  7.87E-03,  avg # of iterations =  3.3

     total cpu time spent up to now is       16.4 secs

     total energy              =   -1051.85482264 Ry
     Harris-Foulkes estimate   =   -1051.51614556 Ry
     estimated scf accuracy    <       1.32633010 Ry

     iteration #  4     ecut=    25.00 Ry     beta= 0.10
     Davidson diagonalization with overlap
     ethr =  1.43E-03,  avg # of iterations =  3.6

     total cpu time spent up to now is       20.2 secs

     total energy              =   -1051.29270554 Ry
     Harris-Foulkes estimate   =   -1052.11512772 Ry
     estimated scf accuracy    <       0.83440859 Ry

     iteration #  5     ecut=    25.00 Ry     beta= 0.10
     Davidson diagonalization with overlap
     ethr =  8.97E-04,  avg # of iterations =  3.6

     total cpu time spent up to now is       24.3 secs

     total energy              =   -1051.49822715 Ry
     Harris-Foulkes estimate   =   -1051.52846420 Ry
     estimated scf accuracy    <       0.35145120 Ry

     iteration #  6     ecut=    25.00 Ry     beta= 0.10
     Davidson diagonalization with overlap
     ethr =  3.78E-04,  avg # of iterations =  3.9

     total cpu time spent up to now is       27.5 secs

     total energy              =   -1051.49011063 Ry
     Harris-Foulkes estimate   =   -1051.51476685 Ry
     estimated scf accuracy    <       0.16755739 Ry

     iteration #  7     ecut=    25.00 Ry     beta= 0.10
     Davidson diagonalization with overlap
     ethr =  1.80E-04,  avg # of iterations =  5.0

     total cpu time spent up to now is       31.7 secs

     total energy              =   -1051.51509686 Ry
     Harris-Foulkes estimate   =   -1051.54596554 Ry
     estimated scf accuracy    <       0.24763904 Ry

     iteration #  8     ecut=    25.00 Ry     beta= 0.10
     Davidson diagonalization with overlap
     ethr =  1.80E-04,  avg # of iterations =  2.2

     total cpu time spent up to now is       34.8 secs

     total energy              =   -1051.53953075 Ry
     Harris-Foulkes estimate   =   -1051.53662211 Ry
     estimated scf accuracy    <       0.00586624 Ry

     iteration #  9     ecut=    25.00 Ry     beta= 0.10
     Davidson diagonalization with overlap
     c_bands:  1 eigenvalues not converged
     ethr =  6.31E-06,  avg # of iterations =  6.1

     total cpu time spent up to now is       40.9 secs

     total energy              =   -1051.54093840 Ry
     Harris-Foulkes estimate   =   -1051.54340446 Ry
     estimated scf accuracy    <       0.00354125 Ry

     iteration # 10     ecut=    25.00 Ry     beta= 0.10
     Davidson diagonalization with overlap
     ethr =  3.81E-06,  avg # of iterations =  5.2

     total cpu time spent up to now is       45.1 secs

     total energy              =   -1051.53865265 Ry
     Harris-Foulkes estimate   =   -1051.54247757 Ry
     estimated scf accuracy    <       0.01736299 Ry

     iteration # 11     ecut=    25.00 Ry     beta= 0.10
     Davidson diagonalization with overlap
     ethr =  3.81E-06,  avg # of iterations =  3.0

     total cpu time spent up to now is       48.6 secs

     total energy              =   -1051.53942503 Ry
     Harris-Foulkes estimate   =   -1051.53970028 Ry
     estimated scf accuracy    <       0.00097734 Ry

     iteration # 12     ecut=    25.00 Ry     beta= 0.10
     Davidson diagonalization with overlap
     ethr =  1.05E-06,  avg # of iterations =  1.6

     total cpu time spent up to now is       51.6 secs

     total energy              =   -1051.53848949 Ry
     Harris-Foulkes estimate   =   -1051.53948470 Ry
     estimated scf accuracy    <       0.00188784 Ry

     iteration # 13     ecut=    25.00 Ry     beta= 0.10
     Davidson diagonalization with overlap
     ethr =  1.05E-06,  avg # of iterations =  3.2

     total cpu time spent up to now is       55.1 secs

     total energy              =   -1051.53870440 Ry
     Harris-Foulkes estimate   =   -1051.53871986 Ry
     estimated scf accuracy    <       0.00002785 Ry

     iteration # 14     ecut=    25.00 Ry     beta= 0.10
     Davidson diagonalization with overlap
     c_bands:  1 eigenvalues not converged
     ethr =  3.00E-08,  avg # of iterations =  6.2

     total cpu time spent up to now is       61.3 secs

     total energy              =   -1051.53875063 Ry
     Harris-Foulkes estimate   =   -1051.53875624 Ry
     estimated scf accuracy    <       0.00022064 Ry

     iteration # 15     ecut=    25.00 Ry     beta= 0.10
     Davidson diagonalization with overlap
     c_bands:  1 eigenvalues not converged
     ethr =  3.00E-08,  avg # of iterations =  2.4

     total cpu time spent up to now is       64.4 secs

     total energy              =   -1051.53873288 Ry
     Harris-Foulkes estimate   =   -1051.53875092 Ry
     estimated scf accuracy    <       0.00018884 Ry

     iteration # 16     ecut=    25.00 Ry     beta= 0.10
     Davidson diagonalization with overlap
     ethr =  3.00E-08,  avg # of iterations =  3.1

     total cpu time spent up to now is       68.0 secs

     total energy              =   -1051.53873705 Ry
     Harris-Foulkes estimate   =   -1051.53874082 Ry
     estimated scf accuracy    <       0.00003598 Ry

     iteration # 17     ecut=    25.00 Ry     beta= 0.10
     Davidson diagonalization with overlap
     ethr =  3.00E-08,  avg # of iterations =  1.0

     total cpu time spent up to now is       71.0 secs

     total energy              =   -1051.53873216 Ry
     Harris-Foulkes estimate   =   -1051.53873769 Ry
     estimated scf accuracy    <       0.00001916 Ry

     iteration # 18     ecut=    25.00 Ry     beta= 0.10
     Davidson diagonalization with overlap
     ethr =  2.06E-08,  avg # of iterations =  3.3

     total cpu time spent up to now is       74.4 secs

     total energy              =   -1051.53873464 Ry
     Harris-Foulkes estimate   =   -1051.53873528 Ry
     estimated scf accuracy    <       0.00000153 Ry

     iteration # 19     ecut=    25.00 Ry     beta= 0.10
     Davidson diagonalization with overlap
     ethr =  1.65E-09,  avg # of iterations =  3.8

     total cpu time spent up to now is       78.3 secs

     End of self-consistent calculation

          k = 0.1667 0.1667 0.1667 (   922 PWs)   bands (ev):

    39.3913  43.0294  45.7800  45.8169  46.4979  47.2369  47.4270  47.4356
    48.2056  48.2214  48.9871  49.6102  49.6444  50.6637  50.9065  50.9903
    51.0029  51.0390  51.4688  51.4929  51.6702  51.7932  51.8257  51.9133
    52.7130  52.7198  53.0214  53.6412  54.0203  54.0387  54.5871  54.6166
    56.5848  56.8925  56.8981  58.6969  59.3365  59.3465  59.4054  60.5596
    61.1820  61.1956  61.3588  61.3899  61.3980  61.7693  61.7770  62.1271
    62.4701  62.5515  62.5740  62.9380  63.2413  63.2596  63.8993  63.9335

          k = 0.1667 0.1667-0.5000 (   904 PWs)   bands (ev):

    40.0007  42.9912  44.8502  47.2174  47.2497  47.3257  47.9321  47.9407
    48.7881  48.8607  48.9297  49.1907  49.2851  49.4127  49.5168  50.2373
    50.4274  50.7153  51.9833  51.9918  52.1011  52.2666  52.4875  52.5008
    52.5294  52.6669  52.7178  52.8622  54.2770  54.6757  54.7369  55.4201
    56.9984  57.0918  58.8198  58.8599  58.9838  59.1208  59.7161  59.7320
    60.0673  60.2206  60.2376  60.5466  60.8337  60.8736  60.9318  61.1023
    61.1584  61.3257  61.3776  62.0704  62.3064  62.8902  63.7473  63.9346

          k = 0.1667-0.5000-0.5000 (   920 PWs)   bands (ev):

    40.3547  44.6305  44.6529  44.6903  46.8193  48.3844  48.4427  48.4710
    49.2918  49.6396  49.6473  49.6715  49.7670  49.8869  49.9043  50.4706
    50.6075  50.6630  50.6692  50.7188  50.8967  50.9143  51.0388  53.4492
    53.5743  53.5756  53.6080  53.6706  53.7915  53.7954  54.8886  56.6307
    56.9729  57.9715  58.0512  58.1155  58.2087  58.3046  58.6581  58.6915
    59.6281  59.8501  59.8717  60.6735  60.7738  60.9372  60.9633  61.0117
    61.0189  61.0687  61.1118  61.2349  61.4388  63.1453  63.1782  63.3087

          k =-0.5000-0.5000-0.5000 (   912 PWs)   bands (ev):

    40.5592  45.9591  46.0405  46.0939  46.1215  46.1393  46.1522  46.1821
    49.7510  51.2895  51.2997  51.3044  51.3216  51.3265  51.3324  51.3396
    51.4430  51.4513  51.4567  51.4689  51.4793  51.4924  51.4989  51.5098
    51.5565  51.5635  51.5807  51.9466  51.9743  51.9983  55.7130  55.7504
    58.2077  59.2690  59.3089  59.3138  59.3894  59.4133  59.4379  59.4773
    59.5080  59.5216  59.5323  59.5452  59.5667  59.5812  59.5858  59.6302
    59.6536  59.7016  59.7092  59.7313  59.9620  62.6573  62.6594  62.7004

          k =-0.1667-0.1667 0.1667 (   922 PWs)   bands (ev):

    39.3916  43.0257  45.7921  45.8203  46.4985  47.2167  47.4295  47.4430
    48.2048  48.2157  48.9652  49.6209  49.6525  50.6996  50.9106  50.9864
    50.9983  51.0546  51.4598  51.4732  51.7064  51.7775  51.8132  51.8800
    52.7110  52.7198  53.0416  53.6340  54.0277  54.0380  54.5948  54.6013
    56.5834  56.8918  56.9009  58.6968  59.3332  59.3427  59.4173  60.5689
    61.1779  61.1991  61.3657  61.3922  61.3964  61.7647  61.7795  62.1345
    62.4549  62.5551  62.5794  62.9245  63.2190  63.2617  63.9186  63.9305

          k =-0.1667 0.1667-0.1667 (   922 PWs)   bands (ev):

    39.3915  43.0263  45.7919  45.8170  46.4992  47.2228  47.4285  47.4400
    48.1961  48.2287  48.9726  49.6179  49.6460  50.6783  50.9068  50.9901
    51.0008  51.0477  51.4738  51.4947  51.6716  51.7901  51.8245  51.8876
    52.6997  52.7190  53.0444  53.6299  54.0062  54.0548  54.5935  54.6167
    56.5843  56.8643  56.9224  58.6984  59.3313  59.3509  59.4090  60.5793
    61.1776  61.1987  61.3618  61.3868  61.3967  61.7553  61.7845  62.1179
    62.4747  62.5297  62.5897  62.9373  63.2378  63.2650  63.9026  63.9347

          k = 0.1667-0.1667-0.1667 (   922 PWs)   bands (ev):

    39.3916  43.0266  45.7761  45.8299  46.5045  47.2224  47.4307  47.4345
    48.1912  48.2323  48.9708  49.6076  49.6499  50.6985  50.9090  50.9970
    51.0023  51.0499  51.4631  51.4929  51.6941  51.7818  51.8000  51.8972
    52.6955  52.6987  53.0596  53.6175  54.0153  54.0656  54.5867  54.6160
    56.5839  56.8652  56.9185  58.6957  59.3285  59.3478  59.4192  60.5978
    61.1736  61.1978  61.3654  61.3866  61.3940  61.7567  61.7711  62.1021
    62.4588  62.5587  62.5888  62.9326  63.2472  63.2629  63.9112  63.9259

          k =-0.1667 0.1667 0.5000 (   904 PWs)   bands (ev):

    40.0008  42.9913  44.8486  47.2158  47.2447  47.3357  47.9302  47.9467
    48.7877  48.8589  48.9242  49.1954  49.2842  49.4153  49.5183  50.2254
    50.4279  50.7131  51.9760  51.9932  52.1120  52.2749  52.4906  52.5015
    52.5454  52.6659  52.6929  52.8676  54.2596  54.6767  54.7330  55.4325
    57.0009  57.1098  58.7959  58.8663  58.9764  59.1166  59.7216  59.7287
    60.0723  60.2241  60.2325  60.5473  60.8255  60.8706  60.9330  61.1146
    61.1584  61.3385  61.3788  62.0823  62.2835  62.8886  63.7459  63.9410

          k =-0.5000-0.1667 0.1667 (   904 PWs)   bands (ev):

    39.9950  43.0133  44.8374  47.2212  47.2759  47.2993  47.9159  47.9464
    48.7944  48.8513  48.9181  49.2065  49.2677  49.4145  49.5441  50.2100
    50.4502  50.6929  51.9605  51.9876  52.1170  52.2796  52.4826  52.5020
    52.5416  52.6580  52.7100  52.8800  54.2705  54.6868  54.7344  55.4391
    56.9683  57.1367  58.8176  58.8390  58.9699  59.1132  59.7283  59.7350
    60.0503  60.1924  60.2676  60.5616  60.7888  60.8483  60.9658  61.1070
    61.1807  61.3466  61.3788  62.0586  62.2791  62.8771  63.7630  63.9611

          k = 0.5000-0.1667-0.1667 (   904 PWs)   bands (ev):

    39.9949  43.0132  44.8404  47.2081  47.2731  47.3034  47.9070  47.9605
    48.7944  48.8525  48.9284  49.2037  49.2578  49.4057  49.5480  50.2188
    50.4545  50.6977  51.9642  51.9828  52.1116  52.2812  52.4816  52.4971
    52.5608  52.6599  52.6902  52.8795  54.2671  54.6877  54.7385  55.4414
    56.9630  57.1292  58.8189  58.8498  58.9670  59.1254  59.7259  59.7378
    60.0549  60.1926  60.2736  60.5581  60.8018  60.8257  60.9621  61.1065
    61.1817  61.3305  61.3798  62.0574  62.2841  62.8657  63.7688  63.9732

          k =-0.1667-0.5000 0.1667 (   904 PWs)   bands (ev):

    39.9974  43.0068  44.8326  47.1951  47.2993  47.3161  47.9195  47.9445
    48.7877  48.8575  48.9191  49.2090  49.2740  49.4113  49.5405  50.2105
    50.4432  50.7038  51.9720  51.9844  52.1014  52.2813  52.4808  52.4977
    52.5318  52.6548  52.7215  52.8813  54.2515  54.6802  54.7331  55.4542
    56.9832  57.1300  58.8236  58.8389  58.9720  59.1077  59.7176  59.7436
    60.0549  60.2010  60.2497  60.5720  60.7998  60.8511  60.9580  61.0972
    61.1660  61.3509  61.3957  62.0648  62.2761  62.9138  63.7524  63.9434

          k =-0.1667 0.5000-0.1667 (   904 PWs)   bands (ev):

    39.9972  43.0068  44.8351  47.2195  47.2669  47.3116  47.9231  47.9430
    48.7904  48.8611  48.9314  49.2081  49.2725  49.4177  49.5305  50.2127
    50.4409  50.6971  51.9714  51.9872  52.1025  52.2694  52.4849  52.4963
    52.5552  52.6591  52.6989  52.8734  54.2832  54.6821  54.7357  55.4311
    56.9804  57.1058  58.8331  58.8560  58.9832  59.1141  59.7223  59.7396
    60.0525  60.2039  60.2567  60.5641  60.8106  60.8462  60.9464  61.0941
    61.1763  61.3541  61.3632  62.0694  62.2686  62.9082  63.7515  63.9498

          k =-0.5000 0.1667 0.5000 (   920 PWs)   bands (ev):

    40.3521  44.5975  44.6841  44.7226  46.7703  48.3597  48.4638  48.4963
    49.2907  49.6294  49.6401  49.6827  49.7672  49.8865  49.8886  50.4623
    50.6166  50.6523  50.6854  50.7151  50.9064  50.9229  51.0428  53.4547
    53.5685  53.5710  53.6121  53.6760  53.7829  53.7897  54.8971  56.6378
    57.0021  58.0195  58.0716  58.0808  58.2158  58.2991  58.5782  58.6807
    59.6310  59.8400  59.8685  60.6759  60.8144  60.9161  60.9663  60.9935
    61.0416  61.0735  61.1004  61.2056  61.4528  63.1354  63.1774  63.3532

          k =-0.5000 0.5000 0.1667 (   920 PWs)   bands (ev):

    40.3496  44.6210  44.6974  44.7042  46.7429  48.3762  48.4756  48.4856
    49.2797  49.6261  49.6352  49.6786  49.7676  49.8879  49.8961  50.4578
    50.6163  50.6724  50.6804  50.7202  50.9046  50.9164  51.0456  53.4529
    53.5637  53.5699  53.6095  53.6737  53.7860  53.7919  54.8873  56.6609
    57.0062  58.0057  58.0584  58.0887  58.2517  58.2792  58.6242  58.6332
    59.6301  59.8474  59.8602  60.6656  60.8017  60.9321  60.9490  60.9997
    61.0321  61.0731  61.0995  61.2106  61.4740  63.1457  63.2003  63.3119

     the Fermi energy is    61.1491 ev

!    total energy              =   -1051.53873446 Ry
     Harris-Foulkes estimate   =   -1051.53873503 Ry
     estimated scf accuracy    <       0.00000019 Ry

     total all-electron energy =    -14881.964931 Ry

     The total energy is the sum of the following terms:

     one-electron contribution =     521.79066085 Ry
     hartree contribution      =       3.43387951 Ry
     xc contribution           =    -141.61968166 Ry
     ewald contribution        =    -331.08552547 Ry
     one-center paw contrib.   =   -1104.04886288 Ry
     smearing contrib. (-TS)   =      -0.00920481 Ry

     convergence has been achieved in  19 iterations

     Forces acting on atoms (cartesian axes, Ry/au):

     atom    1 type  1   force =    -0.02196556    0.02100511    0.01924220
     atom    2 type  1   force =    -0.01674421   -0.02484348    0.03470968
     atom    3 type  1   force =     0.03051433    0.01412045   -0.00017185
     atom    4 type  1   force =    -1.13853351    0.04025248    1.01734649
     atom    5 type  1   force =    -1.11715765    1.05850558    0.02161606
     atom    6 type  1   force =    -0.01874191    0.01672546   -0.02518441
     atom    7 type  1   force =    -0.04152840   -0.05159904   -0.01165413
     atom    8 type  1   force =    -1.09119356    0.00757215   -1.04945449
     atom    9 type  1   force =     0.00891981   -0.01393984    0.03600671
     atom   10 type  1   force =    -0.00711600    0.02684762   -0.05195421
     atom   11 type  1   force =     0.00719560   -0.04435475    0.04309788
     atom   12 type  1   force =    -0.10048918   -0.03364621   -0.00710266
     atom   13 type  1   force =    -1.05945408   -1.08117502   -0.01646132
     atom   14 type  1   force =     0.03759611    0.02763096    0.03134407
     atom   15 type  1   force =    -0.00722573    0.03048150   -0.02316314
     atom   16 type  1   force =     0.05695126    0.00537041   -0.00316205
     atom   17 type  1   force =    -0.01274501    0.04427174    0.00531137
     atom   18 type  1   force =     0.03388616    0.00796289    0.02326516
     atom   19 type  1   force =     0.04366769    1.07218437    1.09210786
     atom   20 type  1   force =     1.08410759    0.02074404    1.03511574
     atom   21 type  1   force =     1.08717029    1.07542561    0.01211638
     atom   22 type  1   force =     0.04211361    1.08975044   -1.12611404
     atom   23 type  1   force =     1.11603753   -0.00982939   -1.04091546
     atom   24 type  1   force =    -0.00374014   -0.02575893   -0.02749184
     atom   25 type  1   force =     0.02054118   -0.03666451    0.04177060
     atom   26 type  1   force =     0.03394765   -1.07638312    1.06658483
     atom   27 type  1   force =     0.02884098   -0.00972638    0.02234909
     atom   28 type  1   force =     1.07687324   -1.10069452    0.01390173
     atom   29 type  1   force =    -0.00576145    0.05010859   -0.01441575
     atom   30 type  1   force =    -0.02300853   -1.09032791   -1.09245313
     atom   31 type  1   force =    -0.04295813   -0.01001630   -0.02618737

     Total force =     5.301683     Total SCF correction =     0.000360


     Computing stress (Cartesian axis) and pressure

          total   stress  (Ry/bohr**3)                   (kbar)     P=86019.87
   0.58466840   0.00001872   0.00004190      86007.68      2.75      6.16
   0.00001872   0.58470797  -0.00007344          2.75  86013.50    -10.80
   0.00004190  -0.00007344   0.58487757          6.16    -10.80  86038.45


     Writing output data file iSJmgdYqCNOXNzap.save/

     init_run     :      3.05s CPU      3.07s WALL (       1 calls)
     electrons    :     74.87s CPU     74.97s WALL (       1 calls)
     forces       :      0.87s CPU      0.88s WALL (       1 calls)
     stress       :      0.95s CPU      0.95s WALL (       1 calls)

     Called by init_run:
     wfcinit      :      2.00s CPU      2.01s WALL (       1 calls)
     potinit      :      0.91s CPU      0.92s WALL (       1 calls)
     hinit0       :      0.11s CPU      0.11s WALL (       1 calls)

     Called by electrons:
     c_bands      :     52.33s CPU     52.42s WALL (      19 calls)
     sum_band     :      5.07s CPU      5.08s WALL (      19 calls)
     v_of_rho     :      0.16s CPU      0.16s WALL (      20 calls)
     newd         :      0.42s CPU      0.43s WALL (      20 calls)
     PAW_pot      :     17.78s CPU     17.79s WALL (      20 calls)
     mix_rho      :      0.03s CPU      0.03s WALL (      19 calls)

     Called by c_bands:
     init_us_2    :      0.26s CPU      0.27s WALL (     574 calls)
     cegterg      :     51.59s CPU     51.67s WALL (     266 calls)

     Called by sum_band:
     sum_band:bec :      0.06s CPU      0.06s WALL (     266 calls)
     addusdens    :      0.16s CPU      0.17s WALL (      19 calls)

     Called by *egterg:
     h_psi        :     23.85s CPU     23.91s WALL (    1208 calls)
     s_psi        :      7.64s CPU      7.65s WALL (    1208 calls)
     g_psi        :      0.07s CPU      0.07s WALL (     928 calls)
     cdiaghg      :      8.32s CPU      8.32s WALL (    1194 calls)

     Called by h_psi:
     h_psi:pot    :     23.79s CPU     23.86s WALL (    1208 calls)
     h_psi:calbec :      9.57s CPU      9.59s WALL (    1208 calls)
     vloc_psi     :      6.57s CPU      6.62s WALL (    1208 calls)
     add_vuspsi   :      7.64s CPU      7.64s WALL (    1208 calls)

     General routines
     calbec       :     13.94s CPU     13.96s WALL (    1544 calls)
     fft          :      0.07s CPU      0.07s WALL (     283 calls)
     ffts         :      0.00s CPU      0.00s WALL (      39 calls)
     fftw         :      6.91s CPU      6.96s WALL (   96842 calls)
     interpolate  :      0.01s CPU      0.01s WALL (      20 calls)

     Parallel routines

     PWSCF        :   1m20.04s CPU   1m20.19s WALL


   This run was terminated on:  16:47: 3  18Mar2020            

=------------------------------------------------------------------------------=
   JOB DONE.
=------------------------------------------------------------------------------=
