
     Program PWSCF v.6.4.1 starts on 18Mar2020 at 17: 2:27 

     This program is part of the open-source Quantum ESPRESSO suite
     for quantum simulation of materials; please cite
         "P. Giannozzi et al., J. Phys.:Condens. Matter 21 395502 (2009);
         "P. Giannozzi et al., J. Phys.:Condens. Matter 29 465901 (2017);
          URL http://www.quantum-espresso.org", 
     in publications or presentations arising from this work. More details at
     http://www.quantum-espresso.org/quote

     Parallel version (MPI), running on     1 processors

     MPI processes distributed on     1 nodes
     Reading input from wd/configs/1/config_0008.in
Warning: card &IONS ignored
Warning: card ION_DYNAMICS = 'BFGS', ignored
Warning: card / ignored
Warning: card &CELL ignored
Warning: card CELL_DYNAMICS = 'BFGS', ignored
Warning: card CELL_FACTOR = 2.0, ignored
Warning: card PRESS = 0.0, ignored
Warning: card / ignored

     Current dimensions of program PWSCF are:
     Max number of different atomic species (ntypx) = 10
     Max number of k-points (npk) =  40000
     Max angular momentum in pseudopotentials (lmaxx) =  3
               file Al.pbe-nl-kjpaw_psl.1.0.0.UPF: wavefunction(s)  3S 3P renormalized

     Subspace diagonalization in iterative solution of the eigenvalue problem:
     a serial algorithm will be used


     G-vector sticks info
     --------------------
     sticks:   dense  smooth     PW     G-vecs:    dense   smooth      PW
     Sum         593     481    149                11067     7809    1419



     bravais-lattice index     =            0
     lattice parameter (alat)  =       7.7226  a.u.
     unit-cell volume          =     460.5584 (a.u.)^3
     number of atoms/cell      =           33
     number of atomic types    =            1
     number of electrons       =        99.00
     number of Kohn-Sham states=           60
     kinetic-energy cutoff     =      25.0000  Ry
     charge density cutoff     =     126.0000  Ry
     convergence threshold     =      1.0E-06
     mixing beta               =       0.1000
     number of iterations used =           10  TF        mixing
     Exchange-correlation      = SLA PW PBX PBC ( 1  4  3  4 0 0)

     celldm(1)=   7.722565  celldm(2)=   0.000000  celldm(3)=   0.000000
     celldm(4)=   0.000000  celldm(5)=   0.000000  celldm(6)=   0.000000

     crystal axes: (cart. coord. in units of alat)
               a(1) = (   1.000000   0.000000   0.000000 )  
               a(2) = (   0.000000   1.000000   0.000000 )  
               a(3) = (   0.000000   0.000000   1.000000 )  

     reciprocal axes: (cart. coord. in units 2 pi/alat)
               b(1) = (  1.000000  0.000000  0.000000 )  
               b(2) = (  0.000000  1.000000  0.000000 )  
               b(3) = (  0.000000  0.000000  1.000000 )  


     PseudoPot. # 1 for Al read from file:
     /opt/pp/Al.pbe-nl-kjpaw_psl.1.0.0.UPF
     MD5 check sum: 1b67f78b73fe58c7924490f171ce8a1e
     Pseudo is Projector augmented-wave + core cor, Zval =  3.0
     Generated using "atomic" code by A. Dal Corso v.6.3
     Shape of augmentation charge: PSQ
     Using radial grid of 1135 points,  4 beta functions with: 
                l(1) =   0
                l(2) =   0
                l(3) =   1
                l(4) =   1
     Q(r) pseudized with 0 coefficients 


     atomic species   valence    mass     pseudopotential
        Al             3.00    26.98200     Al( 1.00)

     No symmetry found



   Cartesian axes

     site n.     atom                  positions (alat units)
         1           Al  tau(   1) = (  -0.0014241  -0.0012573  -0.0010258  )
         2           Al  tau(   2) = (   0.2490199   0.2479537  -0.0010168  )
         3           Al  tau(   3) = (   0.2483378  -0.0011743   0.2498737  )
         4           Al  tau(   4) = (  -0.0013740   0.2495701   0.2494316  )
         5           Al  tau(   5) = (  -0.0002832  -0.0002978   0.4982344  )
         6           Al  tau(   6) = (   0.2491774   0.2480430   0.4987193  )
         7           Al  tau(   7) = (   0.2488150  -0.0006863   0.7482623  )
         8           Al  tau(   8) = (  -0.0010777   0.2491545   0.7495361  )
         9           Al  tau(   9) = (   0.2496442   0.2491314   0.2486440  )
        10           Al  tau(  10) = (  -0.0007428   0.4994020   0.0003083  )
        11           Al  tau(  11) = (   0.2494529   0.7491356  -0.0003020  )
        12           Al  tau(  12) = (   0.2488567   0.4988852   0.2488053  )
        13           Al  tau(  13) = (  -0.0008593   0.7493227   0.2490967  )
        14           Al  tau(  14) = (  -0.0014371   0.4989552   0.4981935  )
        15           Al  tau(  15) = (   0.2500362   0.7478720   0.4975029  )
        16           Al  tau(  16) = (   0.2474079   0.4975404   0.7486780  )
        17           Al  tau(  17) = (  -0.0004893   0.7483080   0.7485519  )
        18           Al  tau(  18) = (   0.4983584  -0.0009228  -0.0022170  )
        19           Al  tau(  19) = (   0.7472631   0.2483258  -0.0009899  )
        20           Al  tau(  20) = (   0.7486068  -0.0014477   0.2480395  )
        21           Al  tau(  21) = (   0.4983931   0.2498636   0.2485967  )
        22           Al  tau(  22) = (   0.4989755  -0.0024979   0.4985164  )
        23           Al  tau(  23) = (   0.7488465   0.2484336   0.4988066  )
        24           Al  tau(  24) = (   0.7487501  -0.0017442   0.7486847  )
        25           Al  tau(  25) = (   0.4981221   0.2491623   0.7478380  )
        26           Al  tau(  26) = (   0.4978046   0.4990920  -0.0002127  )
        27           Al  tau(  27) = (   0.7491033   0.7479212  -0.0015078  )
        28           Al  tau(  28) = (   0.7490522   0.4978777   0.2495327  )
        29           Al  tau(  29) = (   0.4974241   0.7491112   0.2488649  )
        30           Al  tau(  30) = (   0.4993607   0.4986546   0.4981303  )
        31           Al  tau(  31) = (   0.7484961   0.7487425   0.4992562  )
        32           Al  tau(  32) = (   0.7487612   0.4985020   0.7483796  )
        33           Al  tau(  33) = (   0.4981304   0.7477789   0.7486609  )

     number of k points=    14  Marzari-Vanderbilt smearing, width (Ry)=  0.0200
                       cart. coord. in units 2pi/alat
        k(    1) = (   0.1666667   0.1666667   0.1666667), wk =   0.1481481
        k(    2) = (   0.1666667   0.1666667  -0.5000000), wk =   0.1481481
        k(    3) = (   0.1666667  -0.5000000  -0.5000000), wk =   0.1481481
        k(    4) = (  -0.5000000  -0.5000000  -0.5000000), wk =   0.0740741
        k(    5) = (  -0.1666667  -0.1666667   0.1666667), wk =   0.1481481
        k(    6) = (  -0.1666667   0.1666667  -0.1666667), wk =   0.1481481
        k(    7) = (   0.1666667  -0.1666667  -0.1666667), wk =   0.1481481
        k(    8) = (  -0.1666667   0.1666667   0.5000000), wk =   0.1481481
        k(    9) = (  -0.5000000  -0.1666667   0.1666667), wk =   0.1481481
        k(   10) = (   0.5000000  -0.1666667  -0.1666667), wk =   0.1481481
        k(   11) = (  -0.1666667  -0.5000000   0.1666667), wk =   0.1481481
        k(   12) = (  -0.1666667   0.5000000  -0.1666667), wk =   0.1481481
        k(   13) = (  -0.5000000   0.1666667   0.5000000), wk =   0.1481481
        k(   14) = (  -0.5000000   0.5000000   0.1666667), wk =   0.1481481

     Dense  grid:    11067 G-vectors     FFT dimensions: (  27,  27,  27)

     Smooth grid:     7809 G-vectors     FFT dimensions: (  25,  25,  25)

     Estimated max dynamical RAM per process >      47.94 MB

     Initial potential from superposition of free atoms

     starting charge   98.92442, renormalised to   99.00000
     Starting wfcs are  132 randomized atomic wfcs
     Checking if some PAW data can be deallocated... 

     total cpu time spent up to now is        4.1 secs

     Self-consistent Calculation

     iteration #  1     ecut=    25.00 Ry     beta= 0.10
     Davidson diagonalization with overlap
     ethr =  1.00E-02,  avg # of iterations =  4.8

     negative rho (up, down):  3.050E-01 0.000E+00

     total cpu time spent up to now is       11.9 secs

     total energy              =   -1132.03793746 Ry
     Harris-Foulkes estimate   =   -1132.00998674 Ry
     estimated scf accuracy    <      67.06771541 Ry

     iteration #  2     ecut=    25.00 Ry     beta= 0.10
     Davidson diagonalization with overlap
     ethr =  1.00E-02,  avg # of iterations =  2.7

     negative rho (up, down):  2.140E-03 0.000E+00

     total cpu time spent up to now is       15.7 secs

     total energy              =   -1130.01629301 Ry
     Harris-Foulkes estimate   =   -1133.00520215 Ry
     estimated scf accuracy    <      93.46350896 Ry

     iteration #  3     ecut=    25.00 Ry     beta= 0.10
     Davidson diagonalization with overlap
     ethr =  1.00E-02,  avg # of iterations =  3.0

     negative rho (up, down):  2.589E-02 0.000E+00

     total cpu time spent up to now is       19.6 secs

     total energy              =   -1133.84237072 Ry
     Harris-Foulkes estimate   =   -1133.02068031 Ry
     estimated scf accuracy    <      60.37711154 Ry

     iteration #  4     ecut=    25.00 Ry     beta= 0.10
     Davidson diagonalization with overlap
     ethr =  1.00E-02,  avg # of iterations =  3.1

     negative rho (up, down):  1.777E-01 0.000E+00

     total cpu time spent up to now is       23.5 secs

     total energy              =   -1126.21520762 Ry
     Harris-Foulkes estimate   =   -1135.12108405 Ry
     estimated scf accuracy    <      19.43399857 Ry

     iteration #  5     ecut=    25.00 Ry     beta= 0.10
     Davidson diagonalization with overlap
     ethr =  1.00E-02,  avg # of iterations =  4.0

     negative rho (up, down):  1.430E-01 0.000E+00

     total cpu time spent up to now is       28.1 secs

     total energy              =   -1127.46195601 Ry
     Harris-Foulkes estimate   =   -1129.36854780 Ry
     estimated scf accuracy    <     105.37876755 Ry

     iteration #  6     ecut=    25.00 Ry     beta= 0.10
     Davidson diagonalization with overlap
     ethr =  1.00E-02,  avg # of iterations =  2.0

     negative rho (up, down):  4.563E-01 0.000E+00

     total cpu time spent up to now is       31.8 secs

     total energy              =   -1121.86844294 Ry
     Harris-Foulkes estimate   =   -1127.71286259 Ry
     estimated scf accuracy    <      65.05938168 Ry

     iteration #  7     ecut=    25.00 Ry     beta= 0.10
     Davidson diagonalization with overlap
     ethr =  1.00E-02,  avg # of iterations =  3.0

     negative rho (up, down):  4.698E-01 0.000E+00

     total cpu time spent up to now is       35.6 secs

     total energy              =   -1123.28130751 Ry
     Harris-Foulkes estimate   =   -1123.79321163 Ry
     estimated scf accuracy    <      17.71524122 Ry

     iteration #  8     ecut=    25.00 Ry     beta= 0.10
     Davidson diagonalization with overlap
     ethr =  1.00E-02,  avg # of iterations =  1.0

     negative rho (up, down):  4.845E-01 0.000E+00

     total cpu time spent up to now is       39.1 secs

     total energy              =   -1123.17448922 Ry
     Harris-Foulkes estimate   =   -1123.44130650 Ry
     estimated scf accuracy    <       7.88816207 Ry

     iteration #  9     ecut=    25.00 Ry     beta= 0.10
     Davidson diagonalization with overlap
     ethr =  7.97E-03,  avg # of iterations =  1.9

     negative rho (up, down):  6.491E-01 0.000E+00

     total cpu time spent up to now is       42.6 secs

     total energy              =   -1123.31984133 Ry
     Harris-Foulkes estimate   =   -1123.38942718 Ry
     estimated scf accuracy    <       7.54333124 Ry

     iteration # 10     ecut=    25.00 Ry     beta= 0.10
     Davidson diagonalization with overlap
     ethr =  7.62E-03,  avg # of iterations =  1.9

     negative rho (up, down):  6.201E-01 0.000E+00

     total cpu time spent up to now is       46.1 secs

     total energy              =   -1123.04815168 Ry
     Harris-Foulkes estimate   =   -1123.45037948 Ry
     estimated scf accuracy    <      17.70000162 Ry

     iteration # 11     ecut=    25.00 Ry     beta= 0.10
     Davidson diagonalization with overlap
     ethr =  7.62E-03,  avg # of iterations =  1.0

     negative rho (up, down):  5.420E-01 0.000E+00

     total cpu time spent up to now is       49.5 secs

     total energy              =   -1123.09594334 Ry
     Harris-Foulkes estimate   =   -1123.18496279 Ry
     estimated scf accuracy    <       3.54751174 Ry

     iteration # 12     ecut=    25.00 Ry     beta= 0.10
     Davidson diagonalization with overlap
     ethr =  3.58E-03,  avg # of iterations =  2.0

     negative rho (up, down):  4.152E-01 0.000E+00

     total cpu time spent up to now is       53.0 secs

     total energy              =   -1123.01435841 Ry
     Harris-Foulkes estimate   =   -1123.16350028 Ry
     estimated scf accuracy    <       1.49290215 Ry

     iteration # 13     ecut=    25.00 Ry     beta= 0.10
     Davidson diagonalization with overlap
     ethr =  1.51E-03,  avg # of iterations =  5.1

     negative rho (up, down):  3.739E-01 0.000E+00

     total cpu time spent up to now is       57.1 secs

     total energy              =   -1123.04681453 Ry
     Harris-Foulkes estimate   =   -1123.10061406 Ry
     estimated scf accuracy    <       0.46140476 Ry

     iteration # 14     ecut=    25.00 Ry     beta= 0.10
     Davidson diagonalization with overlap
     ethr =  4.66E-04,  avg # of iterations =  3.9

     negative rho (up, down):  3.914E-01 0.000E+00

     total cpu time spent up to now is       61.1 secs

     total energy              =   -1122.97929777 Ry
     Harris-Foulkes estimate   =   -1123.08339697 Ry
     estimated scf accuracy    <       0.45576746 Ry

     iteration # 15     ecut=    25.00 Ry     beta= 0.10
     Davidson diagonalization with overlap
     ethr =  4.60E-04,  avg # of iterations =  2.1

     negative rho (up, down):  4.108E-01 0.000E+00

     total cpu time spent up to now is       64.7 secs

     total energy              =   -1122.97457041 Ry
     Harris-Foulkes estimate   =   -1123.00023124 Ry
     estimated scf accuracy    <       0.56182668 Ry

     iteration # 16     ecut=    25.00 Ry     beta= 0.10
     Davidson diagonalization with overlap
     ethr =  4.60E-04,  avg # of iterations =  1.0

     negative rho (up, down):  4.214E-01 0.000E+00

     total cpu time spent up to now is       68.1 secs

     total energy              =   -1122.95639517 Ry
     Harris-Foulkes estimate   =   -1122.97844015 Ry
     estimated scf accuracy    <       0.72945078 Ry

     iteration # 17     ecut=    25.00 Ry     beta= 0.10
     Davidson diagonalization with overlap
     ethr =  4.60E-04,  avg # of iterations =  1.0

     negative rho (up, down):  3.361E-01 0.000E+00

     total cpu time spent up to now is       71.5 secs

     total energy              =   -1123.10979286 Ry
     Harris-Foulkes estimate   =   -1122.95893759 Ry
     estimated scf accuracy    <       0.73419139 Ry

     iteration # 18     ecut=    25.00 Ry     beta= 0.10
     Davidson diagonalization with overlap
     ethr =  4.60E-04,  avg # of iterations =  2.1

     negative rho (up, down):  3.205E-01 0.000E+00

     total cpu time spent up to now is       75.4 secs

     total energy              =   -1123.08938153 Ry
     Harris-Foulkes estimate   =   -1123.18135746 Ry
     estimated scf accuracy    <       0.40268434 Ry

     iteration # 19     ecut=    25.00 Ry     beta= 0.10
     Davidson diagonalization with overlap
     ethr =  4.07E-04,  avg # of iterations =  2.3

     negative rho (up, down):  3.031E-01 0.000E+00

     total cpu time spent up to now is       79.2 secs

     total energy              =   -1123.11462242 Ry
     Harris-Foulkes estimate   =   -1123.12751341 Ry
     estimated scf accuracy    <       0.45263830 Ry

     iteration # 20     ecut=    25.00 Ry     beta= 0.10
     Davidson diagonalization with overlap
     ethr =  4.07E-04,  avg # of iterations =  1.6

     negative rho (up, down):  3.714E-01 0.000E+00

     total cpu time spent up to now is       82.7 secs

     total energy              =   -1123.15576385 Ry
     Harris-Foulkes estimate   =   -1123.12248870 Ry
     estimated scf accuracy    <       0.34229259 Ry

     iteration # 21     ecut=    25.00 Ry     beta= 0.10
     Davidson diagonalization with overlap
     ethr =  3.46E-04,  avg # of iterations =  3.0

     negative rho (up, down):  5.827E-01 0.000E+00

     total cpu time spent up to now is       86.7 secs

     total energy              =   -1123.18898886 Ry
     Harris-Foulkes estimate   =   -1123.19698148 Ry
     estimated scf accuracy    <       0.45927292 Ry

     iteration # 22     ecut=    25.00 Ry     beta= 0.10
     Davidson diagonalization with overlap
     ethr =  3.46E-04,  avg # of iterations =  1.1

     negative rho (up, down):  5.618E-01 0.000E+00

     total cpu time spent up to now is       90.1 secs

     total energy              =   -1123.17805785 Ry
     Harris-Foulkes estimate   =   -1123.19776257 Ry
     estimated scf accuracy    <       0.42271705 Ry

     iteration # 23     ecut=    25.00 Ry     beta= 0.10
     Davidson diagonalization with overlap
     ethr =  3.46E-04,  avg # of iterations =  4.2

     negative rho (up, down):  7.399E-01 0.000E+00

     total cpu time spent up to now is       94.7 secs

     total energy              =   -1122.98970858 Ry
     Harris-Foulkes estimate   =   -1123.28375599 Ry
     estimated scf accuracy    <       2.33013544 Ry

     iteration # 24     ecut=    25.00 Ry     beta= 0.10
     Davidson diagonalization with overlap
     ethr =  3.46E-04,  avg # of iterations =  3.9

     negative rho (up, down):  8.495E-01 0.000E+00

     total cpu time spent up to now is       99.4 secs

     total energy              =   -1123.15245271 Ry
     Harris-Foulkes estimate   =   -1123.18414335 Ry
     estimated scf accuracy    <       0.46847127 Ry

     iteration # 25     ecut=    25.00 Ry     beta= 0.10
     Davidson diagonalization with overlap
     ethr =  3.46E-04,  avg # of iterations =  2.6

     negative rho (up, down):  1.066E+00 0.000E+00

     total cpu time spent up to now is      103.3 secs

     total energy              =   -1123.06409445 Ry
     Harris-Foulkes estimate   =   -1123.18567881 Ry
     estimated scf accuracy    <       0.64100258 Ry

     iteration # 26     ecut=    25.00 Ry     beta= 0.10
     Davidson diagonalization with overlap
     ethr =  3.46E-04,  avg # of iterations =  3.3

     negative rho (up, down):  1.108E+00 0.000E+00

     total cpu time spent up to now is      107.6 secs

     total energy              =   -1123.11968125 Ry
     Harris-Foulkes estimate   =   -1123.12483738 Ry
     estimated scf accuracy    <       0.08063605 Ry

     iteration # 27     ecut=    25.00 Ry     beta= 0.10
     Davidson diagonalization with overlap
     ethr =  8.15E-05,  avg # of iterations =  4.8

     negative rho (up, down):  1.227E+00 0.000E+00

     total cpu time spent up to now is      112.5 secs

     total energy              =   -1123.08520123 Ry
     Harris-Foulkes estimate   =   -1123.14895195 Ry
     estimated scf accuracy    <       0.59746264 Ry

     iteration # 28     ecut=    25.00 Ry     beta= 0.10
     Davidson diagonalization with overlap
     ethr =  8.15E-05,  avg # of iterations =  4.9

     negative rho (up, down):  1.245E+00 0.000E+00

     total cpu time spent up to now is      117.8 secs

     total energy              =   -1123.13744865 Ry
     Harris-Foulkes estimate   =   -1123.13347476 Ry
     estimated scf accuracy    <       1.60255459 Ry

     iteration # 29     ecut=    25.00 Ry     beta= 0.10
     Davidson diagonalization with overlap
     ethr =  8.15E-05,  avg # of iterations =  3.0

     negative rho (up, down):  1.247E+00 0.000E+00

     total cpu time spent up to now is      121.7 secs

     total energy              =   -1123.12253850 Ry
     Harris-Foulkes estimate   =   -1123.14883130 Ry
     estimated scf accuracy    <       2.45740262 Ry

     iteration # 30     ecut=    25.00 Ry     beta= 0.10
     Davidson diagonalization with overlap
     ethr =  8.15E-05,  avg # of iterations =  4.7

     negative rho (up, down):  1.200E+00 0.000E+00

     total cpu time spent up to now is      126.1 secs

     total energy              =   -1123.12125631 Ry
     Harris-Foulkes estimate   =   -1123.14382300 Ry
     estimated scf accuracy    <       0.75720563 Ry

     iteration # 31     ecut=    25.00 Ry     beta= 0.10
     Davidson diagonalization with overlap
     ethr =  8.15E-05,  avg # of iterations =  3.7

     negative rho (up, down):  1.145E+00 0.000E+00

     total cpu time spent up to now is      130.3 secs

     total energy              =   -1123.12664757 Ry
     Harris-Foulkes estimate   =   -1123.13555027 Ry
     estimated scf accuracy    <       0.14986612 Ry

     iteration # 32     ecut=    25.00 Ry     beta= 0.10
     Davidson diagonalization with overlap
     ethr =  8.15E-05,  avg # of iterations =  3.6

     negative rho (up, down):  1.214E+00 0.000E+00

     total cpu time spent up to now is      134.5 secs

     total energy              =   -1123.13326344 Ry
     Harris-Foulkes estimate   =   -1123.13895403 Ry
     estimated scf accuracy    <       0.27647254 Ry

     iteration # 33     ecut=    25.00 Ry     beta= 0.10
     Davidson diagonalization with overlap
     ethr =  8.15E-05,  avg # of iterations =  2.1

     negative rho (up, down):  1.196E+00 0.000E+00

     total cpu time spent up to now is      138.3 secs

     total energy              =   -1123.13899314 Ry
     Harris-Foulkes estimate   =   -1123.13803483 Ry
     estimated scf accuracy    <       0.29854918 Ry

     iteration # 34     ecut=    25.00 Ry     beta= 0.10
     Davidson diagonalization with overlap
     ethr =  8.15E-05,  avg # of iterations =  1.0

     negative rho (up, down):  1.112E+00 0.000E+00

     total cpu time spent up to now is      141.7 secs

     total energy              =   -1123.13969071 Ry
     Harris-Foulkes estimate   =   -1123.13938388 Ry
     estimated scf accuracy    <       0.29209756 Ry

     iteration # 35     ecut=    25.00 Ry     beta= 0.10
     Davidson diagonalization with overlap
     ethr =  8.15E-05,  avg # of iterations =  2.4

     negative rho (up, down):  1.231E+00 0.000E+00

     total cpu time spent up to now is      145.8 secs

     total energy              =   -1123.12626887 Ry
     Harris-Foulkes estimate   =   -1123.14741602 Ry
     estimated scf accuracy    <       0.42845023 Ry

     iteration # 36     ecut=    25.00 Ry     beta= 0.10
     Davidson diagonalization with overlap
     ethr =  8.15E-05,  avg # of iterations =  3.0

     negative rho (up, down):  9.296E-01 0.000E+00

     total cpu time spent up to now is      150.0 secs

     total energy              =   -1123.11376424 Ry
     Harris-Foulkes estimate   =   -1123.13751815 Ry
     estimated scf accuracy    <       0.28614260 Ry

     iteration # 37     ecut=    25.00 Ry     beta= 0.10
     Davidson diagonalization with overlap
     ethr =  8.15E-05,  avg # of iterations =  4.4

     negative rho (up, down):  8.677E-01 0.000E+00

     total cpu time spent up to now is      155.5 secs

     total energy              =   -1123.18372993 Ry
     Harris-Foulkes estimate   =   -1123.18340383 Ry
     estimated scf accuracy    <       0.70094929 Ry

     iteration # 38     ecut=    25.00 Ry     beta= 0.10
     Davidson diagonalization with overlap
     ethr =  8.15E-05,  avg # of iterations =  2.1

     negative rho (up, down):  9.789E-01 0.000E+00

     total cpu time spent up to now is      159.5 secs

     total energy              =   -1123.15082726 Ry
     Harris-Foulkes estimate   =   -1123.19163384 Ry
     estimated scf accuracy    <       0.68619161 Ry

     iteration # 39     ecut=    25.00 Ry     beta= 0.10
     Davidson diagonalization with overlap
     ethr =  8.15E-05,  avg # of iterations =  3.0

     negative rho (up, down):  9.782E-01 0.000E+00

     total cpu time spent up to now is      163.9 secs

     total energy              =   -1123.16244667 Ry
     Harris-Foulkes estimate   =   -1123.17040790 Ry
     estimated scf accuracy    <       0.64280063 Ry

     iteration # 40     ecut=    25.00 Ry     beta= 0.10
     Davidson diagonalization with overlap
     ethr =  8.15E-05,  avg # of iterations =  1.1

     negative rho (up, down):  9.188E-01 0.000E+00

     total cpu time spent up to now is      167.5 secs

     total energy              =   -1123.16347066 Ry
     Harris-Foulkes estimate   =   -1123.16328227 Ry
     estimated scf accuracy    <       0.58596941 Ry

     iteration # 41     ecut=    25.00 Ry     beta= 0.10
     Davidson diagonalization with overlap
     ethr =  8.15E-05,  avg # of iterations =  2.1

     negative rho (up, down):  1.150E+00 0.000E+00

     total cpu time spent up to now is      171.4 secs

     total energy              =   -1123.10487279 Ry
     Harris-Foulkes estimate   =   -1123.17311223 Ry
     estimated scf accuracy    <       0.57979757 Ry

     iteration # 42     ecut=    25.00 Ry     beta= 0.10
     Davidson diagonalization with overlap
     ethr =  8.15E-05,  avg # of iterations =  4.0

     negative rho (up, down):  1.178E+00 0.000E+00

     total cpu time spent up to now is      176.2 secs

     total energy              =   -1123.12998325 Ry
     Harris-Foulkes estimate   =   -1123.13226701 Ry
     estimated scf accuracy    <       0.18871444 Ry

     iteration # 43     ecut=    25.00 Ry     beta= 0.10
     Davidson diagonalization with overlap
     ethr =  8.15E-05,  avg # of iterations =  3.0

     negative rho (up, down):  1.174E+00 0.000E+00

     total cpu time spent up to now is      180.0 secs

     total energy              =   -1123.12745420 Ry
     Harris-Foulkes estimate   =   -1123.13502558 Ry
     estimated scf accuracy    <       0.31007663 Ry

     iteration # 44     ecut=    25.00 Ry     beta= 0.10
     Davidson diagonalization with overlap
     ethr =  8.15E-05,  avg # of iterations =  2.9

     negative rho (up, down):  1.059E+00 0.000E+00

     total cpu time spent up to now is      183.7 secs

     total energy              =   -1123.12829156 Ry
     Harris-Foulkes estimate   =   -1123.13263532 Ry
     estimated scf accuracy    <       0.37376974 Ry

     iteration # 45     ecut=    25.00 Ry     beta= 0.10
     Davidson diagonalization with overlap
     ethr =  8.15E-05,  avg # of iterations =  2.9

     negative rho (up, down):  1.090E+00 0.000E+00

     total cpu time spent up to now is      187.7 secs

     total energy              =   -1123.13243148 Ry
     Harris-Foulkes estimate   =   -1123.13830010 Ry
     estimated scf accuracy    <       0.31254022 Ry

     iteration # 46     ecut=    25.00 Ry     beta= 0.10
     Davidson diagonalization with overlap
     ethr =  8.15E-05,  avg # of iterations =  1.4

     negative rho (up, down):  1.117E+00 0.000E+00

     total cpu time spent up to now is      191.1 secs

     total energy              =   -1123.12520251 Ry
     Harris-Foulkes estimate   =   -1123.13355091 Ry
     estimated scf accuracy    <       0.25912623 Ry

     iteration # 47     ecut=    25.00 Ry     beta= 0.10
     Davidson diagonalization with overlap
     ethr =  8.15E-05,  avg # of iterations =  2.0

     negative rho (up, down):  1.058E+00 0.000E+00

     total cpu time spent up to now is      194.7 secs

     total energy              =   -1123.13919138 Ry
     Harris-Foulkes estimate   =   -1123.12755724 Ry
     estimated scf accuracy    <       0.15507025 Ry

     iteration # 48     ecut=    25.00 Ry     beta= 0.10
     Davidson diagonalization with overlap
     ethr =  8.15E-05,  avg # of iterations =  2.9

     negative rho (up, down):  1.092E+00 0.000E+00

     total cpu time spent up to now is      198.5 secs

     total energy              =   -1123.14291565 Ry
     Harris-Foulkes estimate   =   -1123.14580993 Ry
     estimated scf accuracy    <       0.37392213 Ry

     iteration # 49     ecut=    25.00 Ry     beta= 0.10
     Davidson diagonalization with overlap
     ethr =  8.15E-05,  avg # of iterations =  1.1

     negative rho (up, down):  1.152E+00 0.000E+00

     total cpu time spent up to now is      201.9 secs

     total energy              =   -1123.13648723 Ry
     Harris-Foulkes estimate   =   -1123.14384712 Ry
     estimated scf accuracy    <       0.37737298 Ry

     iteration # 50     ecut=    25.00 Ry     beta= 0.10
     Davidson diagonalization with overlap
     ethr =  8.15E-05,  avg # of iterations =  1.9

     negative rho (up, down):  1.103E+00 0.000E+00

     total cpu time spent up to now is      205.6 secs

     total energy              =   -1123.13359861 Ry
     Harris-Foulkes estimate   =   -1123.13845738 Ry
     estimated scf accuracy    <       0.33979049 Ry

     iteration # 51     ecut=    25.00 Ry     beta= 0.10
     Davidson diagonalization with overlap
     ethr =  8.15E-05,  avg # of iterations =  1.9

     negative rho (up, down):  1.172E+00 0.000E+00

     total cpu time spent up to now is      209.1 secs

     total energy              =   -1123.13124157 Ry
     Harris-Foulkes estimate   =   -1123.13628999 Ry
     estimated scf accuracy    <       0.31280918 Ry

     iteration # 52     ecut=    25.00 Ry     beta= 0.10
     Davidson diagonalization with overlap
     ethr =  8.15E-05,  avg # of iterations =  3.6

     negative rho (up, down):  1.329E+00 0.000E+00

     total cpu time spent up to now is      213.1 secs

     total energy              =   -1123.10393167 Ry
     Harris-Foulkes estimate   =   -1123.13986201 Ry
     estimated scf accuracy    <       0.36590125 Ry

     iteration # 53     ecut=    25.00 Ry     beta= 0.10
     Davidson diagonalization with overlap
     ethr =  8.15E-05,  avg # of iterations =  4.1

     negative rho (up, down):  1.280E+00 0.000E+00

     total cpu time spent up to now is      218.3 secs

     total energy              =   -1123.11384050 Ry
     Harris-Foulkes estimate   =   -1123.13761128 Ry
     estimated scf accuracy    <       0.30437196 Ry

     iteration # 54     ecut=    25.00 Ry     beta= 0.10
     Davidson diagonalization with overlap
     ethr =  8.15E-05,  avg # of iterations =  3.0

     negative rho (up, down):  1.272E+00 0.000E+00

     total cpu time spent up to now is      222.5 secs

     total energy              =   -1123.12144323 Ry
     Harris-Foulkes estimate   =   -1123.12954222 Ry
     estimated scf accuracy    <       0.19316566 Ry

     iteration # 55     ecut=    25.00 Ry     beta= 0.10
     Davidson diagonalization with overlap
     ethr =  8.15E-05,  avg # of iterations =  2.1

     negative rho (up, down):  1.334E+00 0.000E+00

     total cpu time spent up to now is      226.3 secs

     total energy              =   -1123.11992585 Ry
     Harris-Foulkes estimate   =   -1123.12589278 Ry
     estimated scf accuracy    <       0.23883269 Ry

     iteration # 56     ecut=    25.00 Ry     beta= 0.10
     Davidson diagonalization with overlap
     ethr =  8.15E-05,  avg # of iterations =  2.0

     negative rho (up, down):  1.325E+00 0.000E+00

     total cpu time spent up to now is      230.1 secs

     total energy              =   -1123.11755861 Ry
     Harris-Foulkes estimate   =   -1123.12428131 Ry
     estimated scf accuracy    <       0.16079718 Ry

     iteration # 57     ecut=    25.00 Ry     beta= 0.10
     Davidson diagonalization with overlap
     ethr =  8.15E-05,  avg # of iterations =  2.0

     negative rho (up, down):  1.314E+00 0.000E+00

     total cpu time spent up to now is      233.9 secs

     total energy              =   -1123.11925715 Ry
     Harris-Foulkes estimate   =   -1123.11953166 Ry
     estimated scf accuracy    <       0.09537809 Ry

     iteration # 58     ecut=    25.00 Ry     beta= 0.10
     Davidson diagonalization with overlap
     ethr =  8.15E-05,  avg # of iterations =  1.0

     negative rho (up, down):  1.330E+00 0.000E+00

     total cpu time spent up to now is      237.3 secs

     total energy              =   -1123.11820263 Ry
     Harris-Foulkes estimate   =   -1123.11973548 Ry
     estimated scf accuracy    <       0.12558098 Ry

     iteration # 59     ecut=    25.00 Ry     beta= 0.10
     Davidson diagonalization with overlap
     ethr =  8.15E-05,  avg # of iterations =  1.4

     negative rho (up, down):  1.270E+00 0.000E+00

     total cpu time spent up to now is      240.9 secs

     total energy              =   -1123.12058775 Ry
     Harris-Foulkes estimate   =   -1123.11907757 Ry
     estimated scf accuracy    <       0.16504866 Ry

     iteration # 60     ecut=    25.00 Ry     beta= 0.10
     Davidson diagonalization with overlap
     ethr =  8.15E-05,  avg # of iterations =  2.0

     negative rho (up, down):  1.398E+00 0.000E+00

     total cpu time spent up to now is      244.6 secs

     total energy              =   -1123.11027102 Ry
     Harris-Foulkes estimate   =   -1123.12479852 Ry
     estimated scf accuracy    <       0.25863293 Ry

     iteration # 61     ecut=    25.00 Ry     beta= 0.10
     Davidson diagonalization with overlap
     ethr =  8.15E-05,  avg # of iterations =  3.1

     negative rho (up, down):  1.376E+00 0.000E+00

     total cpu time spent up to now is      248.7 secs

     total energy              =   -1123.11791758 Ry
     Harris-Foulkes estimate   =   -1123.12170728 Ry
     estimated scf accuracy    <       0.12161469 Ry

     iteration # 62     ecut=    25.00 Ry     beta= 0.10
     Davidson diagonalization with overlap
     ethr =  8.15E-05,  avg # of iterations =  2.1

     negative rho (up, down):  1.405E+00 0.000E+00

     total cpu time spent up to now is      252.4 secs

     total energy              =   -1123.11799689 Ry
     Harris-Foulkes estimate   =   -1123.12136009 Ry
     estimated scf accuracy    <       0.14347554 Ry

     iteration # 63     ecut=    25.00 Ry     beta= 0.10
     Davidson diagonalization with overlap
     ethr =  8.15E-05,  avg # of iterations =  1.6

     negative rho (up, down):  1.408E+00 0.000E+00

     total cpu time spent up to now is      256.0 secs

     total energy              =   -1123.12176897 Ry
     Harris-Foulkes estimate   =   -1123.11900112 Ry
     estimated scf accuracy    <       0.09649163 Ry

     iteration # 64     ecut=    25.00 Ry     beta= 0.10
     Davidson diagonalization with overlap
     ethr =  8.15E-05,  avg # of iterations =  2.6

     negative rho (up, down):  1.383E+00 0.000E+00

     total cpu time spent up to now is      259.8 secs

     total energy              =   -1123.10586614 Ry
     Harris-Foulkes estimate   =   -1123.12502476 Ry
     estimated scf accuracy    <       0.22198789 Ry

     iteration # 65     ecut=    25.00 Ry     beta= 0.10
     Davidson diagonalization with overlap
     ethr =  8.15E-05,  avg # of iterations =  3.3

     negative rho (up, down):  1.347E+00 0.000E+00

     total cpu time spent up to now is      263.8 secs

     total energy              =   -1123.11874151 Ry
     Harris-Foulkes estimate   =   -1123.11834291 Ry
     estimated scf accuracy    <       0.13314030 Ry

     iteration # 66     ecut=    25.00 Ry     beta= 0.10
     Davidson diagonalization with overlap
     ethr =  8.15E-05,  avg # of iterations =  1.8

     negative rho (up, down):  1.451E+00 0.000E+00

     total cpu time spent up to now is      267.4 secs

     total energy              =   -1123.10953386 Ry
     Harris-Foulkes estimate   =   -1123.12000512 Ry
     estimated scf accuracy    <       0.12376416 Ry

     iteration # 67     ecut=    25.00 Ry     beta= 0.10
     Davidson diagonalization with overlap
     ethr =  8.15E-05,  avg # of iterations =  3.1

     negative rho (up, down):  1.425E+00 0.000E+00

     total cpu time spent up to now is      271.3 secs

     total energy              =   -1123.11482199 Ry
     Harris-Foulkes estimate   =   -1123.11695690 Ry
     estimated scf accuracy    <       0.06569460 Ry

     iteration # 68     ecut=    25.00 Ry     beta= 0.10
     Davidson diagonalization with overlap
     ethr =  6.64E-05,  avg # of iterations =  2.6

     negative rho (up, down):  1.379E+00 0.000E+00

     total cpu time spent up to now is      274.9 secs

     total energy              =   -1123.11556764 Ry
     Harris-Foulkes estimate   =   -1123.11638138 Ry
     estimated scf accuracy    <       0.02521776 Ry

     iteration # 69     ecut=    25.00 Ry     beta= 0.10
     Davidson diagonalization with overlap
     ethr =  2.55E-05,  avg # of iterations =  3.7

     negative rho (up, down):  1.328E+00 0.000E+00

     total cpu time spent up to now is      279.0 secs

     total energy              =   -1123.12017455 Ry
     Harris-Foulkes estimate   =   -1123.11818849 Ry
     estimated scf accuracy    <       0.10121999 Ry

     iteration # 70     ecut=    25.00 Ry     beta= 0.10
     Davidson diagonalization with overlap
     ethr =  2.55E-05,  avg # of iterations =  2.0

     negative rho (up, down):  1.318E+00 0.000E+00

     total cpu time spent up to now is      282.7 secs

     total energy              =   -1123.11365887 Ry
     Harris-Foulkes estimate   =   -1123.12100874 Ry
     estimated scf accuracy    <       0.12661547 Ry

     iteration # 71     ecut=    25.00 Ry     beta= 0.10
     Davidson diagonalization with overlap
     ethr =  2.55E-05,  avg # of iterations =  3.1

     negative rho (up, down):  1.440E+00 0.000E+00

     total cpu time spent up to now is      286.9 secs

     total energy              =   -1123.11351573 Ry
     Harris-Foulkes estimate   =   -1123.11872209 Ry
     estimated scf accuracy    <       0.08575004 Ry

     iteration # 72     ecut=    25.00 Ry     beta= 0.10
     Davidson diagonalization with overlap
     ethr =  2.55E-05,  avg # of iterations =  3.6

     negative rho (up, down):  1.389E+00 0.000E+00

     total cpu time spent up to now is      291.5 secs

     total energy              =   -1123.11554608 Ry
     Harris-Foulkes estimate   =   -1123.12020580 Ry
     estimated scf accuracy    <       0.21011645 Ry

     iteration # 73     ecut=    25.00 Ry     beta= 0.10
     Davidson diagonalization with overlap
     ethr =  2.55E-05,  avg # of iterations =  2.0

     negative rho (up, down):  1.312E+00 0.000E+00

     total cpu time spent up to now is      295.1 secs

     total energy              =   -1123.11735644 Ry
     Harris-Foulkes estimate   =   -1123.11664557 Ry
     estimated scf accuracy    <       0.07003656 Ry

     iteration # 74     ecut=    25.00 Ry     beta= 0.10
     Davidson diagonalization with overlap
     ethr =  2.55E-05,  avg # of iterations =  5.9

     negative rho (up, down):  1.478E+00 0.000E+00

     total cpu time spent up to now is      300.5 secs

     total energy              =   -1123.11326099 Ry
     Harris-Foulkes estimate   =   -1123.12856128 Ry
     estimated scf accuracy    <       0.18311113 Ry

     iteration # 75     ecut=    25.00 Ry     beta= 0.10
     Davidson diagonalization with overlap
     ethr =  2.55E-05,  avg # of iterations =  4.8

     negative rho (up, down):  1.491E+00 0.000E+00

     total cpu time spent up to now is      305.3 secs

     total energy              =   -1123.11714560 Ry
     Harris-Foulkes estimate   =   -1123.11920820 Ry
     estimated scf accuracy    <       0.12751350 Ry

     iteration # 76     ecut=    25.00 Ry     beta= 0.10
     Davidson diagonalization with overlap
     ethr =  2.55E-05,  avg # of iterations =  2.0

     negative rho (up, down):  1.505E+00 0.000E+00

     total cpu time spent up to now is      309.0 secs

     total energy              =   -1123.11353403 Ry
     Harris-Foulkes estimate   =   -1123.11795904 Ry
     estimated scf accuracy    <       0.10183494 Ry

     iteration # 77     ecut=    25.00 Ry     beta= 0.10
     Davidson diagonalization with overlap
     ethr =  2.55E-05,  avg # of iterations =  4.1

     negative rho (up, down):  1.517E+00 0.000E+00

     total cpu time spent up to now is      313.5 secs

     total energy              =   -1123.12263776 Ry
     Harris-Foulkes estimate   =   -1123.11910801 Ry
     estimated scf accuracy    <       0.05252487 Ry

     iteration # 78     ecut=    25.00 Ry     beta= 0.10
     Davidson diagonalization with overlap
     ethr =  2.55E-05,  avg # of iterations =  2.4

     negative rho (up, down):  1.501E+00 0.000E+00

     total cpu time spent up to now is      317.2 secs

     total energy              =   -1123.12145143 Ry
     Harris-Foulkes estimate   =   -1123.12468178 Ry
     estimated scf accuracy    <       0.10623908 Ry

     iteration # 79     ecut=    25.00 Ry     beta= 0.10
     Davidson diagonalization with overlap
     ethr =  2.55E-05,  avg # of iterations =  2.0

     negative rho (up, down):  1.448E+00 0.000E+00

     total cpu time spent up to now is      320.8 secs

     total energy              =   -1123.11032542 Ry
     Harris-Foulkes estimate   =   -1123.12228745 Ry
     estimated scf accuracy    <       0.08111212 Ry

     iteration # 80     ecut=    25.00 Ry     beta= 0.10
     Davidson diagonalization with overlap
     ethr =  2.55E-05,  avg # of iterations =  3.6

     negative rho (up, down):  1.445E+00 0.000E+00

     total cpu time spent up to now is      325.2 secs

     total energy              =   -1123.11522067 Ry
     Harris-Foulkes estimate   =   -1123.11607480 Ry
     estimated scf accuracy    <       0.02328672 Ry

     iteration # 81     ecut=    25.00 Ry     beta= 0.10
     Davidson diagonalization with overlap
     ethr =  2.35E-05,  avg # of iterations =  2.1

     negative rho (up, down):  1.448E+00 0.000E+00

     total cpu time spent up to now is      329.0 secs

     total energy              =   -1123.11038954 Ry
     Harris-Foulkes estimate   =   -1123.11720410 Ry
     estimated scf accuracy    <       0.04630187 Ry

     iteration # 82     ecut=    25.00 Ry     beta= 0.10
     Davidson diagonalization with overlap
     ethr =  2.35E-05,  avg # of iterations =  6.2

     negative rho (up, down):  1.435E+00 0.000E+00

     total cpu time spent up to now is      335.1 secs

     total energy              =   -1123.15307779 Ry
     Harris-Foulkes estimate   =   -1123.13284640 Ry
     estimated scf accuracy    <       0.41038498 Ry

     iteration # 83     ecut=    25.00 Ry     beta= 0.10
     Davidson diagonalization with overlap
     ethr =  2.35E-05,  avg # of iterations =  5.1

     negative rho (up, down):  1.484E+00 0.000E+00

     total cpu time spent up to now is      339.9 secs

     total energy              =   -1123.08635699 Ry
     Harris-Foulkes estimate   =   -1123.16266578 Ry
     estimated scf accuracy    <       1.38496459 Ry

     iteration # 84     ecut=    25.00 Ry     beta= 0.10
     Davidson diagonalization with overlap
     ethr =  2.35E-05,  avg # of iterations =  5.4

     negative rho (up, down):  1.510E+00 0.000E+00

     total cpu time spent up to now is      345.7 secs

     total energy              =   -1123.12176420 Ry
     Harris-Foulkes estimate   =   -1123.12276450 Ry
     estimated scf accuracy    <       0.18257916 Ry

     iteration # 85     ecut=    25.00 Ry     beta= 0.10
     Davidson diagonalization with overlap
     ethr =  2.35E-05,  avg # of iterations =  3.4

     negative rho (up, down):  1.456E+00 0.000E+00

     total cpu time spent up to now is      349.5 secs

     total energy              =   -1123.11732368 Ry
     Harris-Foulkes estimate   =   -1123.12349077 Ry
     estimated scf accuracy    <       0.23887381 Ry

     iteration # 86     ecut=    25.00 Ry     beta= 0.10
     Davidson diagonalization with overlap
     ethr =  2.35E-05,  avg # of iterations =  4.6

     negative rho (up, down):  1.416E+00 0.000E+00

     total cpu time spent up to now is      353.9 secs

     total energy              =   -1123.11881194 Ry
     Harris-Foulkes estimate   =   -1123.12132547 Ry
     estimated scf accuracy    <       0.23554035 Ry

     iteration # 87     ecut=    25.00 Ry     beta= 0.10
     Davidson diagonalization with overlap
     ethr =  2.35E-05,  avg # of iterations =  2.1

     negative rho (up, down):  1.409E+00 0.000E+00

     total cpu time spent up to now is      357.5 secs

     total energy              =   -1123.12334816 Ry
     Harris-Foulkes estimate   =   -1123.11991696 Ry
     estimated scf accuracy    <       0.18334764 Ry

     iteration # 88     ecut=    25.00 Ry     beta= 0.10
     Davidson diagonalization with overlap
     ethr =  2.35E-05,  avg # of iterations =  5.2

     negative rho (up, down):  1.474E+00 0.000E+00

     total cpu time spent up to now is      362.8 secs

     total energy              =   -1123.09178648 Ry
     Harris-Foulkes estimate   =   -1123.13610577 Ry
     estimated scf accuracy    <       0.42160093 Ry

     iteration # 89     ecut=    25.00 Ry     beta= 0.10
     Davidson diagonalization with overlap
     ethr =  2.35E-05,  avg # of iterations =  5.7

     negative rho (up, down):  1.369E+00 0.000E+00

     total cpu time spent up to now is      368.8 secs

     total energy              =   -1123.10923890 Ry
     Harris-Foulkes estimate   =   -1123.11857867 Ry
     estimated scf accuracy    <       0.08056690 Ry

     iteration # 90     ecut=    25.00 Ry     beta= 0.10
     Davidson diagonalization with overlap
     ethr =  2.35E-05,  avg # of iterations =  5.5

     negative rho (up, down):  1.482E+00 0.000E+00

     total cpu time spent up to now is      374.8 secs

     total energy              =   -1123.06598291 Ry
     Harris-Foulkes estimate   =   -1123.13406575 Ry
     estimated scf accuracy    <       0.39574844 Ry

     iteration # 91     ecut=    25.00 Ry     beta= 0.10
     Davidson diagonalization with overlap
     ethr =  2.35E-05,  avg # of iterations =  5.6

     negative rho (up, down):  1.344E+00 0.000E+00

     total cpu time spent up to now is      381.8 secs

     total energy              =   -1123.10795930 Ry
     Harris-Foulkes estimate   =   -1123.12544513 Ry
     estimated scf accuracy    <       0.10339849 Ry

     iteration # 92     ecut=    25.00 Ry     beta= 0.10
     Davidson diagonalization with overlap
     ethr =  2.35E-05,  avg # of iterations =  3.5

     negative rho (up, down):  1.281E+00 0.000E+00

     total cpu time spent up to now is      386.8 secs

     total energy              =   -1123.11511599 Ry
     Harris-Foulkes estimate   =   -1123.11836112 Ry
     estimated scf accuracy    <       0.08754798 Ry

     iteration # 93     ecut=    25.00 Ry     beta= 0.10
     Davidson diagonalization with overlap
     ethr =  2.35E-05,  avg # of iterations =  4.5

     negative rho (up, down):  1.226E+00 0.000E+00

     total cpu time spent up to now is      391.5 secs

     total energy              =   -1123.13449257 Ry
     Harris-Foulkes estimate   =   -1123.12182835 Ry
     estimated scf accuracy    <       0.14118413 Ry

     iteration # 94     ecut=    25.00 Ry     beta= 0.10
     Davidson diagonalization with overlap
     ethr =  2.35E-05,  avg # of iterations =  5.1

     negative rho (up, down):  1.518E+00 0.000E+00

     total cpu time spent up to now is      397.1 secs

     total energy              =   -1123.09944542 Ry
     Harris-Foulkes estimate   =   -1123.14881526 Ry
     estimated scf accuracy    <       0.49623649 Ry

     iteration # 95     ecut=    25.00 Ry     beta= 0.10
     Davidson diagonalization with overlap
     ethr =  2.35E-05,  avg # of iterations =  5.1

     negative rho (up, down):  1.537E+00 0.000E+00

     total cpu time spent up to now is      403.2 secs

     total energy              =   -1123.12740548 Ry
     Harris-Foulkes estimate   =   -1123.12697031 Ry
     estimated scf accuracy    <       0.35233026 Ry

     iteration # 96     ecut=    25.00 Ry     beta= 0.10
     Davidson diagonalization with overlap
     ethr =  2.35E-05,  avg # of iterations =  1.3

     negative rho (up, down):  1.514E+00 0.000E+00

     total cpu time spent up to now is      406.7 secs

     total energy              =   -1123.12374578 Ry
     Harris-Foulkes estimate   =   -1123.12764696 Ry
     estimated scf accuracy    <       0.34648306 Ry

     iteration # 97     ecut=    25.00 Ry     beta= 0.10
     Davidson diagonalization with overlap
     ethr =  2.35E-05,  avg # of iterations =  4.4

     negative rho (up, down):  1.514E+00 0.000E+00

     total cpu time spent up to now is      411.1 secs

     total energy              =   -1123.12479504 Ry
     Harris-Foulkes estimate   =   -1123.12857729 Ry
     estimated scf accuracy    <       0.30670060 Ry

     iteration # 98     ecut=    25.00 Ry     beta= 0.10
     Davidson diagonalization with overlap
     ethr =  2.35E-05,  avg # of iterations =  2.6

     negative rho (up, down):  1.513E+00 0.000E+00

     total cpu time spent up to now is      414.7 secs

     total energy              =   -1123.12375316 Ry
     Harris-Foulkes estimate   =   -1123.12581855 Ry
     estimated scf accuracy    <       0.28280551 Ry

     iteration # 99     ecut=    25.00 Ry     beta= 0.10
     Davidson diagonalization with overlap
     ethr =  2.35E-05,  avg # of iterations =  1.8

     negative rho (up, down):  1.481E+00 0.000E+00

     total cpu time spent up to now is      418.2 secs

     total energy              =   -1123.12372173 Ry
     Harris-Foulkes estimate   =   -1123.12403232 Ry
     estimated scf accuracy    <       0.25743707 Ry

     iteration #100     ecut=    25.00 Ry     beta= 0.10
     Davidson diagonalization with overlap
     ethr =  2.35E-05,  avg # of iterations =  4.4

     negative rho (up, down):  1.538E+00 0.000E+00

     total cpu time spent up to now is      423.0 secs

     total energy              =   -1123.12486499 Ry
     Harris-Foulkes estimate   =   -1123.13221105 Ry
     estimated scf accuracy    <       0.38653769 Ry

     End of self-consistent calculation

     convergence NOT achieved after 100 iterations: stopping

     Writing output data file HtJOAtpNiVQYBDEJ.save/

     init_run     :      3.74s CPU      3.80s WALL (       1 calls)
     electrons    :    418.39s CPU    418.86s WALL (       1 calls)

     Called by init_run:
     wfcinit      :      2.53s CPU      2.54s WALL (       1 calls)
     potinit      :      1.05s CPU      1.10s WALL (       1 calls)
     hinit0       :      0.13s CPU      0.13s WALL (       1 calls)

     Called by electrons:
     c_bands      :    285.62s CPU    285.99s WALL (     100 calls)
     sum_band     :     32.46s CPU     32.54s WALL (     100 calls)
     v_of_rho     :      0.82s CPU      0.82s WALL (     101 calls)
     newd         :      2.45s CPU      2.45s WALL (     101 calls)
     PAW_pot      :     97.86s CPU     97.91s WALL (     101 calls)
     mix_rho      :      0.19s CPU      0.20s WALL (     100 calls)

     Called by c_bands:
     init_us_2    :      1.56s CPU      1.57s WALL (    2814 calls)
     cegterg      :    281.01s CPU    281.36s WALL (    1400 calls)

     Called by sum_band:
     sum_band:bec :      0.45s CPU      0.45s WALL (    1400 calls)
     addusdens    :      1.01s CPU      1.02s WALL (     100 calls)

     Called by *egterg:
     h_psi        :    130.45s CPU    130.72s WALL (    5634 calls)
     s_psi        :     42.61s CPU     42.63s WALL (    5634 calls)
     g_psi        :      0.36s CPU      0.36s WALL (    4220 calls)
     cdiaghg      :     43.97s CPU     43.98s WALL (    5620 calls)

     Called by h_psi:
     h_psi:pot    :    130.12s CPU    130.39s WALL (    5634 calls)
     h_psi:calbec :     53.54s CPU     53.59s WALL (    5634 calls)
     vloc_psi     :     33.90s CPU     34.11s WALL (    5634 calls)
     add_vuspsi   :     42.66s CPU     42.68s WALL (    5634 calls)

     General routines
     calbec       :     76.09s CPU     76.17s WALL (    7034 calls)
     fft          :      0.30s CPU      0.30s WALL (    1313 calls)
     ffts         :      0.01s CPU      0.01s WALL (     201 calls)
     fftw         :     36.68s CPU     36.91s WALL (  479702 calls)
     interpolate  :      0.04s CPU      0.04s WALL (     101 calls)
     davcio       :      0.00s CPU      0.01s WALL (      36 calls)

     Parallel routines

     PWSCF        :   7m 2.45s CPU   7m 3.00s WALL


   This run was terminated on:  17: 9:30  18Mar2020            

=------------------------------------------------------------------------------=
   JOB DONE.
=------------------------------------------------------------------------------=
