
     Program PWSCF v.6.4.1 starts on 18Mar2020 at 16:42:58 

     This program is part of the open-source Quantum ESPRESSO suite
     for quantum simulation of materials; please cite
         "P. Giannozzi et al., J. Phys.:Condens. Matter 21 395502 (2009);
         "P. Giannozzi et al., J. Phys.:Condens. Matter 29 465901 (2017);
          URL http://www.quantum-espresso.org", 
     in publications or presentations arising from this work. More details at
     http://www.quantum-espresso.org/quote

     Parallel version (MPI), running on     1 processors

     MPI processes distributed on     1 nodes
     Reading input from wd/configs/1/config_0001.in
Warning: card &IONS ignored
Warning: card ION_DYNAMICS = 'BFGS', ignored
Warning: card / ignored
Warning: card &CELL ignored
Warning: card CELL_DYNAMICS = 'BFGS', ignored
Warning: card CELL_FACTOR = 2.0, ignored
Warning: card PRESS = 0.0, ignored
Warning: card / ignored

     Current dimensions of program PWSCF are:
     Max number of different atomic species (ntypx) = 10
     Max number of k-points (npk) =  40000
     Max angular momentum in pseudopotentials (lmaxx) =  3
               file Al.pbe-nl-kjpaw_psl.1.0.0.UPF: wavefunction(s)  3S 3P renormalized

     Subspace diagonalization in iterative solution of the eigenvalue problem:
     a serial algorithm will be used


     G-vector sticks info
     --------------------
     sticks:   dense  smooth     PW     G-vecs:    dense   smooth      PW
     Sum         577     441    145                10395     7153    1357



     bravais-lattice index     =            0
     lattice parameter (alat)  =       7.5583  a.u.
     unit-cell volume          =     431.7939 (a.u.)^3
     number of atoms/cell      =           31
     number of atomic types    =            1
     number of electrons       =        93.00
     number of Kohn-Sham states=           56
     kinetic-energy cutoff     =      25.0000  Ry
     charge density cutoff     =     126.0000  Ry
     convergence threshold     =      1.0E-06
     mixing beta               =       0.1000
     number of iterations used =           10  TF        mixing
     Exchange-correlation      = SLA PW PBX PBC ( 1  4  3  4 0 0)

     celldm(1)=   7.558324  celldm(2)=   0.000000  celldm(3)=   0.000000
     celldm(4)=   0.000000  celldm(5)=   0.000000  celldm(6)=   0.000000

     crystal axes: (cart. coord. in units of alat)
               a(1) = (   1.000000   0.000000   0.000000 )  
               a(2) = (   0.000000   1.000000   0.000000 )  
               a(3) = (   0.000000   0.000000   1.000000 )  

     reciprocal axes: (cart. coord. in units 2 pi/alat)
               b(1) = (  1.000000  0.000000  0.000000 )  
               b(2) = (  0.000000  1.000000  0.000000 )  
               b(3) = (  0.000000  0.000000  1.000000 )  


     PseudoPot. # 1 for Al read from file:
     /opt/pp/Al.pbe-nl-kjpaw_psl.1.0.0.UPF
     MD5 check sum: 1b67f78b73fe58c7924490f171ce8a1e
     Pseudo is Projector augmented-wave + core cor, Zval =  3.0
     Generated using "atomic" code by A. Dal Corso v.6.3
     Shape of augmentation charge: PSQ
     Using radial grid of 1135 points,  4 beta functions with: 
                l(1) =   0
                l(2) =   0
                l(3) =   1
                l(4) =   1
     Q(r) pseudized with 0 coefficients 


     atomic species   valence    mass     pseudopotential
        Al             3.00    26.98200     Al( 1.00)

     No symmetry found



   Cartesian axes

     site n.     atom                  positions (alat units)
         1           Al  tau(   1) = (  -0.0014551  -0.0012846  -0.0010481  )
         2           Al  tau(   2) = (   0.2489986   0.2479093  -0.0010389  )
         3           Al  tau(   3) = (   0.2483017  -0.0011998   0.2498710  )
         4           Al  tau(   4) = (  -0.0014039   0.2495607   0.2494192  )
         5           Al  tau(   5) = (  -0.0002894  -0.0003043   0.4981960  )
         6           Al  tau(   6) = (   0.2491595   0.2480004   0.4986914  )
         7           Al  tau(   7) = (   0.2487892  -0.0007012   0.7482245  )
         8           Al  tau(   8) = (  -0.0011011   0.2491361   0.7495260  )
         9           Al  tau(   9) = (  -0.0003635   0.4991125  -0.0013854  )
        10           Al  tau(  10) = (   0.2492411   0.7493890   0.0003150  )
        11           Al  tau(  11) = (   0.2494411   0.4991168   0.2496914  )
        12           Al  tau(  12) = (  -0.0011681   0.7488610   0.2487793  )
        13           Al  tau(  13) = (  -0.0008779   0.4993080   0.4990770  )
        14           Al  tau(  14) = (   0.2485316   0.7489325   0.4981542  )
        15           Al  tau(  15) = (   0.2500370   0.4978258   0.7474486  )
        16           Al  tau(  16) = (  -0.0026485   0.7474870   0.7486493  )
        17           Al  tau(  17) = (   0.4995000  -0.0017288  -0.0014795  )
        18           Al  tau(  18) = (   0.7483227   0.2490571  -0.0022652  )
        19           Al  tau(  19) = (   0.7472036  -0.0017105   0.2489886  )
        20           Al  tau(  20) = (   0.4985765   0.2485208   0.2479969  )
        21           Al  tau(  21) = (   0.4983582  -0.0001394   0.4985662  )
        22           Al  tau(  22) = (   0.7489532   0.2474478   0.4984841  )
        23           Al  tau(  23) = (   0.7488214  -0.0016005   0.7487806  )
        24           Al  tau(  24) = (   0.4987230   0.2482179   0.7486561  )
        25           Al  tau(  25) = (   0.4980813   0.4991441  -0.0022090  )
        26           Al  tau(  26) = (   0.7477569   0.7490722  -0.0002173  )
        27           Al  tau(  27) = (   0.7490839   0.4978760   0.2484595  )
        28           Al  tau(  28) = (   0.4990316   0.7478316   0.2495225  )
        29           Al  tau(  29) = (   0.7473682   0.7490919   0.4988402  )
        30           Al  tau(  30) = (   0.7493468   0.4986253   0.7480896  )
        31           Al  tau(  31) = (   0.4984634   0.7487152   0.7492400  )

     number of k points=    14  Marzari-Vanderbilt smearing, width (Ry)=  0.0200
                       cart. coord. in units 2pi/alat
        k(    1) = (   0.1666667   0.1666667   0.1666667), wk =   0.1481481
        k(    2) = (   0.1666667   0.1666667  -0.5000000), wk =   0.1481481
        k(    3) = (   0.1666667  -0.5000000  -0.5000000), wk =   0.1481481
        k(    4) = (  -0.5000000  -0.5000000  -0.5000000), wk =   0.0740741
        k(    5) = (  -0.1666667  -0.1666667   0.1666667), wk =   0.1481481
        k(    6) = (  -0.1666667   0.1666667  -0.1666667), wk =   0.1481481
        k(    7) = (   0.1666667  -0.1666667  -0.1666667), wk =   0.1481481
        k(    8) = (  -0.1666667   0.1666667   0.5000000), wk =   0.1481481
        k(    9) = (  -0.5000000  -0.1666667   0.1666667), wk =   0.1481481
        k(   10) = (   0.5000000  -0.1666667  -0.1666667), wk =   0.1481481
        k(   11) = (  -0.1666667  -0.5000000   0.1666667), wk =   0.1481481
        k(   12) = (  -0.1666667   0.5000000  -0.1666667), wk =   0.1481481
        k(   13) = (  -0.5000000   0.1666667   0.5000000), wk =   0.1481481
        k(   14) = (  -0.5000000   0.5000000   0.1666667), wk =   0.1481481

     Dense  grid:    10395 G-vectors     FFT dimensions: (  27,  27,  27)

     Smooth grid:     7153 G-vectors     FFT dimensions: (  25,  25,  25)

     Estimated max dynamical RAM per process >      43.08 MB

     Initial potential from superposition of free atoms

     starting charge   92.92900, renormalised to   93.00000
     Starting wfcs are  124 randomized atomic wfcs
     Checking if some PAW data can be deallocated... 

     total cpu time spent up to now is        3.4 secs

     Self-consistent Calculation

     iteration #  1     ecut=    25.00 Ry     beta= 0.10
     Davidson diagonalization with overlap
     ethr =  1.00E-02,  avg # of iterations =  4.7

     total cpu time spent up to now is        9.6 secs

     total energy              =   -1057.20215030 Ry
     Harris-Foulkes estimate   =   -1059.19323765 Ry
     estimated scf accuracy    <       8.97134853 Ry

     iteration #  2     ecut=    25.00 Ry     beta= 0.10
     Davidson diagonalization with overlap
     ethr =  9.65E-03,  avg # of iterations =  1.0

     total cpu time spent up to now is       12.5 secs

     total energy              =   -1049.97078088 Ry
     Harris-Foulkes estimate   =   -1057.26769359 Ry
     estimated scf accuracy    <       7.25086979 Ry

     iteration #  3     ecut=    25.00 Ry     beta= 0.10
     Davidson diagonalization with overlap
     ethr =  7.80E-03,  avg # of iterations =  3.3

     total cpu time spent up to now is       16.4 secs

     total energy              =   -1052.15614639 Ry
     Harris-Foulkes estimate   =   -1051.84279959 Ry
     estimated scf accuracy    <       1.31986453 Ry

     iteration #  4     ecut=    25.00 Ry     beta= 0.10
     Davidson diagonalization with overlap
     ethr =  1.42E-03,  avg # of iterations =  3.6

     total cpu time spent up to now is       20.1 secs

     total energy              =   -1051.62279304 Ry
     Harris-Foulkes estimate   =   -1052.40270671 Ry
     estimated scf accuracy    <       0.80546755 Ry

     iteration #  5     ecut=    25.00 Ry     beta= 0.10
     Davidson diagonalization with overlap
     ethr =  8.66E-04,  avg # of iterations =  3.7

     total cpu time spent up to now is       24.2 secs

     total energy              =   -1051.82406870 Ry
     Harris-Foulkes estimate   =   -1051.86248628 Ry
     estimated scf accuracy    <       0.40374575 Ry

     iteration #  6     ecut=    25.00 Ry     beta= 0.10
     Davidson diagonalization with overlap
     ethr =  4.34E-04,  avg # of iterations =  1.6

     total cpu time spent up to now is       27.2 secs

     total energy              =   -1051.82044831 Ry
     Harris-Foulkes estimate   =   -1051.84069228 Ry
     estimated scf accuracy    <       0.18494278 Ry

     iteration #  7     ecut=    25.00 Ry     beta= 0.10
     Davidson diagonalization with overlap
     ethr =  1.99E-04,  avg # of iterations =  4.5

     total cpu time spent up to now is       31.0 secs

     total energy              =   -1051.85352405 Ry
     Harris-Foulkes estimate   =   -1051.85308421 Ry
     estimated scf accuracy    <       0.09586813 Ry

     iteration #  8     ecut=    25.00 Ry     beta= 0.10
     Davidson diagonalization with overlap
     ethr =  1.03E-04,  avg # of iterations =  4.4

     total cpu time spent up to now is       34.3 secs

     total energy              =   -1051.86635833 Ry
     Harris-Foulkes estimate   =   -1051.86343461 Ry
     estimated scf accuracy    <       0.00480899 Ry

     iteration #  9     ecut=    25.00 Ry     beta= 0.10
     Davidson diagonalization with overlap
     c_bands:  1 eigenvalues not converged
     c_bands:  1 eigenvalues not converged
     c_bands:  1 eigenvalues not converged
     ethr =  5.17E-06,  avg # of iterations =  9.9

     total cpu time spent up to now is       40.7 secs

     total energy              =   -1051.86694345 Ry
     Harris-Foulkes estimate   =   -1051.86928693 Ry
     estimated scf accuracy    <       0.00435252 Ry

     iteration # 10     ecut=    25.00 Ry     beta= 0.10
     Davidson diagonalization with overlap
     ethr =  4.68E-06,  avg # of iterations =  5.1

     total cpu time spent up to now is       44.5 secs

     total energy              =   -1051.86438639 Ry
     Harris-Foulkes estimate   =   -1051.86813938 Ry
     estimated scf accuracy    <       0.00879711 Ry

     iteration # 11     ecut=    25.00 Ry     beta= 0.10
     Davidson diagonalization with overlap
     ethr =  4.68E-06,  avg # of iterations =  2.5

     total cpu time spent up to now is       47.8 secs

     total energy              =   -1051.86526005 Ry
     Harris-Foulkes estimate   =   -1051.86529280 Ry
     estimated scf accuracy    <       0.00046497 Ry

     iteration # 12     ecut=    25.00 Ry     beta= 0.10
     Davidson diagonalization with overlap
     ethr =  5.00E-07,  avg # of iterations =  4.1

     total cpu time spent up to now is       52.2 secs

     total energy              =   -1051.86522644 Ry
     Harris-Foulkes estimate   =   -1051.86540565 Ry
     estimated scf accuracy    <       0.00185248 Ry

     iteration # 13     ecut=    25.00 Ry     beta= 0.10
     Davidson diagonalization with overlap
     ethr =  5.00E-07,  avg # of iterations =  1.0

     total cpu time spent up to now is       55.1 secs

     total energy              =   -1051.86451528 Ry
     Harris-Foulkes estimate   =   -1051.86524219 Ry
     estimated scf accuracy    <       0.00170748 Ry

     iteration # 14     ecut=    25.00 Ry     beta= 0.10
     Davidson diagonalization with overlap
     ethr =  5.00E-07,  avg # of iterations =  3.9

     total cpu time spent up to now is       59.5 secs

     total energy              =   -1051.86482189 Ry
     Harris-Foulkes estimate   =   -1051.86482596 Ry
     estimated scf accuracy    <       0.00030097 Ry

     iteration # 15     ecut=    25.00 Ry     beta= 0.10
     Davidson diagonalization with overlap
     ethr =  3.24E-07,  avg # of iterations =  1.0

     total cpu time spent up to now is       62.4 secs

     total energy              =   -1051.86477855 Ry
     Harris-Foulkes estimate   =   -1051.86482491 Ry
     estimated scf accuracy    <       0.00026875 Ry

     iteration # 16     ecut=    25.00 Ry     beta= 0.10
     Davidson diagonalization with overlap
     ethr =  2.89E-07,  avg # of iterations =  2.0

     total cpu time spent up to now is       65.5 secs

     total energy              =   -1051.86479442 Ry
     Harris-Foulkes estimate   =   -1051.86480341 Ry
     estimated scf accuracy    <       0.00000685 Ry

     iteration # 17     ecut=    25.00 Ry     beta= 0.10
     Davidson diagonalization with overlap
     ethr =  7.36E-09,  avg # of iterations =  4.4

     total cpu time spent up to now is       70.8 secs

     total energy              =   -1051.86479978 Ry
     Harris-Foulkes estimate   =   -1051.86479893 Ry
     estimated scf accuracy    <       0.00000405 Ry

     iteration # 18     ecut=    25.00 Ry     beta= 0.10
     Davidson diagonalization with overlap
     ethr =  4.36E-09,  avg # of iterations =  2.8

     total cpu time spent up to now is       74.1 secs

     total energy              =   -1051.86479946 Ry
     Harris-Foulkes estimate   =   -1051.86480033 Ry
     estimated scf accuracy    <       0.00000819 Ry

     iteration # 19     ecut=    25.00 Ry     beta= 0.10
     Davidson diagonalization with overlap
     ethr =  4.36E-09,  avg # of iterations =  1.1

     total cpu time spent up to now is       77.0 secs

     total energy              =   -1051.86479744 Ry
     Harris-Foulkes estimate   =   -1051.86479971 Ry
     estimated scf accuracy    <       0.00000244 Ry

     iteration # 20     ecut=    25.00 Ry     beta= 0.10
     Davidson diagonalization with overlap
     ethr =  2.62E-09,  avg # of iterations =  3.1

     total cpu time spent up to now is       80.5 secs

     End of self-consistent calculation

          k = 0.1667 0.1667 0.1667 (   922 PWs)   bands (ev):

    39.3256  42.9451  45.6988  45.7309  46.4420  47.1601  47.3768  47.3887
    48.1276  48.1518  48.8941  49.5274  49.5612  50.6138  50.8597  50.9303
    50.9604  50.9919  51.4067  51.4098  51.6019  51.6952  51.7424  51.8278
    52.6286  52.6522  52.9779  53.5572  53.9464  53.9855  54.5293  54.5482
    56.5036  56.7989  56.8432  58.6314  59.2841  59.2997  59.3673  60.5141
    61.1216  61.1297  61.2966  61.3201  61.3307  61.6980  61.7162  62.0552
    62.4087  62.4823  62.5222  62.8700  63.1855  63.1932  63.8297  63.8558

          k = 0.1667 0.1667-0.5000 (   904 PWs)   bands (ev):

    39.9389  42.9054  44.7616  47.1388  47.1567  47.2302  47.8624  47.8940
    48.7405  48.8131  48.8658  49.1511  49.2045  49.3272  49.4540  50.1428
    50.3479  50.6425  51.9153  51.9317  52.0304  52.2118  52.4267  52.4426
    52.4665  52.5858  52.6409  52.7923  54.1874  54.6047  54.6681  55.3855
    56.9304  57.0449  58.7530  58.7935  58.9007  59.0539  59.6670  59.6780
    60.0051  60.1547  60.1812  60.4890  60.7486  60.8113  60.8890  61.0494
    61.1049  61.2904  61.3102  62.0142  62.2173  62.8356  63.7002  63.8816

          k = 0.1667-0.5000-0.5000 (   920 PWs)   bands (ev):

    40.2940  44.5460  44.5623  44.6265  46.6797  48.3070  48.3525  48.4086
    49.2170  49.5598  49.5933  49.6159  49.7055  49.8271  49.8385  50.3995
    50.5634  50.6072  50.6161  50.6455  50.8247  50.8497  50.9670  53.3938
    53.4929  53.5139  53.5419  53.6038  53.7130  53.7362  54.8328  56.5785
    56.9264  57.9128  58.0056  58.0230  58.1689  58.2201  58.5385  58.6266
    59.5765  59.7790  59.8174  60.6238  60.7542  60.8826  60.8972  60.9436
    60.9628  61.0197  61.0496  61.1594  61.3936  63.1077  63.1194  63.2547

          k =-0.5000-0.5000-0.5000 (   912 PWs)   bands (ev):

    40.5033  45.8780  45.9624  46.0067  46.0213  46.0361  46.0564  46.1014
    49.6774  51.2171  51.2322  51.2412  51.2562  51.2635  51.2793  51.2968
    51.3706  51.3858  51.3917  51.4036  51.4084  51.4353  51.4397  51.4493
    51.4861  51.5053  51.5168  51.8735  51.9277  51.9354  55.6578  55.6676
    58.1386  59.1775  59.2511  59.2540  59.3287  59.3624  59.4018  59.4130
    59.4415  59.4645  59.4754  59.5049  59.5095  59.5266  59.5410  59.5705
    59.5785  59.6008  59.6294  59.6832  59.9038  62.5910  62.6215  62.6356

          k =-0.1667-0.1667 0.1667 (   922 PWs)   bands (ev):

    39.3255  42.9465  45.6895  45.7331  46.4462  47.1643  47.3739  47.3885
    48.1242  48.1537  48.8963  49.5181  49.5602  50.6349  50.8622  50.9339
    50.9598  50.9953  51.3920  51.4056  51.6298  51.6935  51.7337  51.8148
    52.6156  52.6517  52.9862  53.5537  53.9632  53.9826  54.5195  54.5455
    56.5064  56.8136  56.8255  58.6297  59.2805  59.3031  59.3697  60.5190
    61.1147  61.1226  61.3048  61.3236  61.3297  61.6907  61.7180  62.0544
    62.3925  62.4981  62.5270  62.8651  63.1693  63.2116  63.8398  63.8586

          k =-0.1667 0.1667-0.1667 (   922 PWs)   bands (ev):

    39.3255  42.9465  45.6819  45.7355  46.4526  47.1678  47.3777  47.3893
    48.1151  48.1564  48.8906  49.5169  49.5627  50.6476  50.8609  50.9344
    50.9612  50.9925  51.3753  51.4048  51.6127  51.7001  51.7408  51.8069
    52.6395  52.6476  52.9883  53.5616  53.9474  53.9863  54.5130  54.5533
    56.5037  56.8048  56.8432  58.6287  59.2823  59.2996  59.3693  60.5069
    61.1115  61.1330  61.3001  61.3196  61.3355  61.7013  61.7169  62.0605
    62.3773  62.4997  62.5330  62.8557  63.1755  63.2011  63.8353  63.8667

          k = 0.1667-0.1667-0.1667 (   922 PWs)   bands (ev):

    39.3257  42.9419  45.7115  45.7493  46.4118  47.1430  47.3799  47.3880
    48.1309  48.1627  48.9007  49.5444  49.5740  50.5434  50.8551  50.9298
    50.9400  50.9941  51.4217  51.4403  51.5774  51.7388  51.7554  51.8264
    52.6455  52.6590  52.9336  53.5677  53.9489  53.9647  54.5361  54.5536
    56.5073  56.8131  56.8233  58.6339  59.2878  59.3023  59.3609  60.5023
    61.1165  61.1348  61.2976  61.3226  61.3397  61.7035  61.7162  62.0787
    62.4298  62.4785  62.4942  62.8968  63.1641  63.1802  63.8270  63.8540

          k =-0.1667 0.1667 0.5000 (   904 PWs)   bands (ev):

    39.9389  42.9055  44.7590  47.1309  47.1680  47.2426  47.8578  47.8881
    48.7405  48.8133  48.8560  49.1495  49.2176  49.3375  49.4419  50.1385
    50.3496  50.6376  51.9173  51.9312  52.0351  52.2044  52.4095  52.4364
    52.4843  52.5986  52.6361  52.7889  54.2104  54.6046  54.6679  55.3691
    56.9312  57.0344  58.7669  58.7920  58.9069  59.0532  59.6579  59.6859
    60.0033  60.1573  60.1742  60.4935  60.7503  60.8053  60.8945  61.0512
    61.0909  61.2940  61.3122  62.0084  62.2217  62.8434  63.6901  63.8775

          k =-0.5000-0.1667 0.1667 (   904 PWs)   bands (ev):

    39.9401  42.8975  44.7771  47.1228  47.1626  47.2159  47.8714  47.8999
    48.7374  48.8142  48.8716  49.1457  49.2028  49.3105  49.4579  50.1556
    50.3430  50.6491  51.9187  51.9362  52.0405  52.2087  52.4227  52.4404
    52.4593  52.5871  52.6534  52.7906  54.1875  54.5988  54.6721  55.3775
    56.9373  57.0374  58.7245  58.8069  58.9128  59.0491  59.6587  59.6810
    60.0149  60.1491  60.1889  60.4726  60.7668  60.8231  60.8788  61.0523
    61.0980  61.2634  61.3234  62.0133  62.2380  62.8050  63.7071  63.8842

          k = 0.5000-0.1667-0.1667 (   904 PWs)   bands (ev):

    39.9402  42.8976  44.7722  47.1182  47.1636  47.2533  47.8557  47.8903
    48.7376  48.8140  48.8510  49.1441  49.2196  49.3341  49.4312  50.1582
    50.3467  50.6446  51.9194  51.9370  52.0440  52.1984  52.4132  52.4380
    52.4986  52.5989  52.6217  52.7820  54.2136  54.6014  54.6698  55.3614
    56.9404  57.0223  58.7500  58.8013  58.9052  59.0536  59.6607  59.6770
    60.0144  60.1501  60.1876  60.4766  60.7597  60.8096  60.8817  61.0661
    61.0983  61.2759  61.3150  62.0076  62.2361  62.8142  63.6874  63.8904

          k =-0.1667-0.5000 0.1667 (   904 PWs)   bands (ev):

    39.9345  42.9318  44.7293  47.1521  47.1944  47.2202  47.8502  47.8631
    48.7499  48.8049  48.8414  49.1403  49.2071  49.3566  49.4514  50.1404
    50.3733  50.6481  51.8999  51.9173  52.0182  52.2167  52.4207  52.4377
    52.4979  52.5922  52.6246  52.8027  54.1986  54.6161  54.6844  55.3617
    56.8975  57.0626  58.7378  58.8026  58.9223  59.0425  59.6721  59.6895
    59.9910  60.1375  60.2062  60.5064  60.7447  60.7850  60.8927  61.0510
    61.1183  61.2519  61.3284  61.9974  62.2318  62.8446  63.6997  63.9002

          k =-0.1667 0.5000-0.1667 (   904 PWs)   bands (ev):

    39.9344  42.9318  44.7320  47.1421  47.1887  47.2113  47.8587  47.8789
    48.7496  48.8034  48.8592  49.1446  49.1975  49.3396  49.4726  50.1224
    50.3714  50.6403  51.8972  51.9171  52.0266  52.2228  52.4272  52.4356
    52.4672  52.5848  52.6529  52.8103  54.1969  54.6132  54.6852  55.3595
    56.8982  57.0727  58.7211  58.7891  58.9289  59.0565  59.6724  59.6919
    59.9920  60.1297  60.2157  60.4978  60.7511  60.7919  60.8923  61.0425
    61.1171  61.2583  61.3222  62.0152  62.2116  62.8402  63.7111  63.8959

          k =-0.5000 0.1667 0.5000 (   920 PWs)   bands (ev):

    40.2965  44.5111  44.5855  44.6121  46.7280  48.2693  48.3727  48.3957
    49.2163  49.5719  49.5899  49.6224  49.7130  49.8248  49.8366  50.3991
    50.5610  50.5910  50.6064  50.6231  50.8383  50.8629  50.9913  53.3769
    53.5005  53.5131  53.5454  53.6104  53.7225  53.7291  54.8179  56.5691
    56.9018  57.9409  58.0065  58.0158  58.1555  58.2451  58.5752  58.6164
    59.5449  59.7928  59.8061  60.6010  60.7208  60.8589  60.9204  60.9452
    60.9911  61.0220  61.0447  61.1906  61.3795  63.0848  63.1320  63.2732

          k =-0.5000 0.5000 0.1667 (   920 PWs)   bands (ev):

    40.2943  44.5326  44.5696  44.6343  46.6750  48.2902  48.3563  48.4191
    49.2218  49.5711  49.5830  49.6142  49.7089  49.8221  49.8329  50.4009
    50.5637  50.6030  50.6232  50.6359  50.8302  50.8540  50.9743  53.3963
    53.4959  53.5111  53.5396  53.6093  53.7121  53.7291  54.8399  56.5686
    56.9356  57.9415  57.9811  58.0536  58.1521  58.2176  58.5499  58.5791
    59.5736  59.7737  59.8198  60.6259  60.7659  60.8783  60.9100  60.9339
    60.9676  61.0007  61.0704  61.1476  61.3909  63.0873  63.1202  63.2964

     the Fermi energy is    61.0907 ev

!    total energy              =   -1051.86479797 Ry
     Harris-Foulkes estimate   =   -1051.86479789 Ry
     estimated scf accuracy    <       0.00000014 Ry

     total all-electron energy =    -14882.290994 Ry

     The total energy is the sum of the following terms:

     one-electron contribution =     521.29569554 Ry
     hartree contribution      =       3.42205651 Ry
     xc contribution           =    -141.56638234 Ry
     ewald contribution        =    -330.97622175 Ry
     one-center paw contrib.   =   -1104.02998742 Ry
     smearing contrib. (-TS)   =      -0.00995852 Ry

     convergence has been achieved in  20 iterations

     Forces acting on atoms (cartesian axes, Ry/au):

     atom    1 type  1   force =     0.00116450   -0.01395847   -0.00020969
     atom    2 type  1   force =     0.01745914   -0.00324328    0.04503395
     atom    3 type  1   force =     0.04533669   -0.00024405   -0.00987228
     atom    4 type  1   force =    -0.02534405    0.05508510   -0.03858370
     atom    5 type  1   force =    -0.03187058   -0.03935042    0.02168273
     atom    6 type  1   force =     1.07217394    1.10408306   -0.01715348
     atom    7 type  1   force =    -0.03032249   -0.07671432   -0.01020622
     atom    8 type  1   force =    -0.01069095    0.04487921   -0.00033116
     atom    9 type  1   force =     0.05486969    0.02305636   -0.00449618
     atom   10 type  1   force =     0.01427607    0.02252914   -0.03609903
     atom   11 type  1   force =     1.08279321   -0.03841893    1.08337704
     atom   12 type  1   force =    -0.06340742   -0.04557116    0.01454984
     atom   13 type  1   force =    -0.01201711   -0.00661896   -0.00130089
     atom   14 type  1   force =     1.08959160   -1.04262801    0.04191677
     atom   15 type  1   force =     1.06940302    0.03456128   -1.08943174
     atom   16 type  1   force =     0.04328603   -0.01122548    0.00603878
     atom   17 type  1   force =    -0.03132208   -0.00793686    0.00337044
     atom   18 type  1   force =    -0.01466196    0.02724152    0.02274817
     atom   19 type  1   force =     0.01747882    0.01410513    0.02035224
     atom   20 type  1   force =     0.00271646    1.12295107    1.02862455
     atom   21 type  1   force =    -0.00939527   -0.01012082    0.02027889
     atom   22 type  1   force =    -1.06435053    1.06955330    0.01738365
     atom   23 type  1   force =     0.03715198   -0.02055526   -0.05377501
     atom   24 type  1   force =     0.02602786    1.09564752   -1.04703495
     atom   25 type  1   force =    -0.02519700   -0.00178357   -0.02117442
     atom   26 type  1   force =    -0.01143025   -0.04193056    0.02178230
     atom   27 type  1   force =    -1.05580503   -0.01119762    1.07749342
     atom   28 type  1   force =     0.00335113   -1.11911031    1.09942183
     atom   29 type  1   force =    -1.07594182   -1.05167133   -0.02204108
     atom   30 type  1   force =    -1.08927953   -0.00631541   -1.08464386
     atom   31 type  1   force =    -0.02604406   -1.06509785   -1.08770089

     Total force =     5.286623     Total SCF correction =     0.000326


     Computing stress (Cartesian axis) and pressure

          total   stress  (Ry/bohr**3)                   (kbar)     P=85805.20
   0.58347067  -0.00006774   0.00000105      85831.48     -9.96      0.15
  -0.00006774   0.58304636   0.00006486         -9.96  85769.07      9.54
   0.00000105   0.00006486   0.58335899          0.15      9.54  85815.06


     Writing output data file RlLckEmHImHvsLsA.save/

     init_run     :      3.05s CPU      3.09s WALL (       1 calls)
     electrons    :     76.90s CPU     77.06s WALL (       1 calls)
     forces       :      0.87s CPU      0.88s WALL (       1 calls)
     stress       :      0.95s CPU      0.95s WALL (       1 calls)

     Called by init_run:
     wfcinit      :      1.99s CPU      2.00s WALL (       1 calls)
     potinit      :      0.92s CPU      0.93s WALL (       1 calls)
     hinit0       :      0.11s CPU      0.13s WALL (       1 calls)

     Called by electrons:
     c_bands      :     53.20s CPU     53.35s WALL (      20 calls)
     sum_band     :      5.33s CPU      5.34s WALL (      20 calls)
     v_of_rho     :      0.17s CPU      0.17s WALL (      21 calls)
     newd         :      0.44s CPU      0.45s WALL (      21 calls)
     PAW_pot      :     18.66s CPU     18.67s WALL (      21 calls)
     mix_rho      :      0.03s CPU      0.03s WALL (      20 calls)

     Called by c_bands:
     init_us_2    :      0.28s CPU      0.28s WALL (     602 calls)
     cegterg      :     52.42s CPU     52.56s WALL (     280 calls)

     Called by sum_band:
     sum_band:bec :      0.07s CPU      0.07s WALL (     280 calls)
     addusdens    :      0.17s CPU      0.18s WALL (      20 calls)

     Called by *egterg:
     h_psi        :     24.42s CPU     24.51s WALL (    1240 calls)
     s_psi        :      7.80s CPU      7.83s WALL (    1240 calls)
     g_psi        :      0.07s CPU      0.07s WALL (     946 calls)
     cdiaghg      :      8.47s CPU      8.48s WALL (    1226 calls)

     Called by h_psi:
     h_psi:pot    :     24.36s CPU     24.45s WALL (    1240 calls)
     h_psi:calbec :      9.81s CPU      9.83s WALL (    1240 calls)
     vloc_psi     :      6.72s CPU      6.79s WALL (    1240 calls)
     add_vuspsi   :      7.82s CPU      7.83s WALL (    1240 calls)

     General routines
     calbec       :     14.35s CPU     14.37s WALL (    1590 calls)
     fft          :      0.07s CPU      0.08s WALL (     296 calls)
     ffts         :      0.00s CPU      0.00s WALL (      41 calls)
     fftw         :      7.09s CPU      7.15s WALL (   99888 calls)
     interpolate  :      0.01s CPU      0.01s WALL (      21 calls)

     Parallel routines

     PWSCF        :   1m22.07s CPU   1m22.35s WALL


   This run was terminated on:  16:44:20  18Mar2020            

=------------------------------------------------------------------------------=
   JOB DONE.
=------------------------------------------------------------------------------=
