
     Program PWSCF v.6.4.1 starts on 18Mar2020 at 16:44:21 

     This program is part of the open-source Quantum ESPRESSO suite
     for quantum simulation of materials; please cite
         "P. Giannozzi et al., J. Phys.:Condens. Matter 21 395502 (2009);
         "P. Giannozzi et al., J. Phys.:Condens. Matter 29 465901 (2017);
          URL http://www.quantum-espresso.org", 
     in publications or presentations arising from this work. More details at
     http://www.quantum-espresso.org/quote

     Parallel version (MPI), running on     1 processors

     MPI processes distributed on     1 nodes
     Reading input from wd/configs/1/config_0002.in
Warning: card &IONS ignored
Warning: card ION_DYNAMICS = 'BFGS', ignored
Warning: card / ignored
Warning: card &CELL ignored
Warning: card CELL_DYNAMICS = 'BFGS', ignored
Warning: card CELL_FACTOR = 2.0, ignored
Warning: card PRESS = 0.0, ignored
Warning: card / ignored

     Current dimensions of program PWSCF are:
     Max number of different atomic species (ntypx) = 10
     Max number of k-points (npk) =  40000
     Max angular momentum in pseudopotentials (lmaxx) =  3
               file Al.pbe-nl-kjpaw_psl.1.0.0.UPF: wavefunction(s)  3S 3P renormalized

     Subspace diagonalization in iterative solution of the eigenvalue problem:
     a serial algorithm will be used


     G-vector sticks info
     --------------------
     sticks:   dense  smooth     PW     G-vecs:    dense   smooth      PW
     Sum         577     441    145                10395     7153    1357



     bravais-lattice index     =            0
     lattice parameter (alat)  =       7.5600  a.u.
     unit-cell volume          =     432.0844 (a.u.)^3
     number of atoms/cell      =           31
     number of atomic types    =            1
     number of electrons       =        93.00
     number of Kohn-Sham states=           56
     kinetic-energy cutoff     =      25.0000  Ry
     charge density cutoff     =     126.0000  Ry
     convergence threshold     =      1.0E-06
     mixing beta               =       0.1000
     number of iterations used =           10  TF        mixing
     Exchange-correlation      = SLA PW PBX PBC ( 1  4  3  4 0 0)

     celldm(1)=   7.560018  celldm(2)=   0.000000  celldm(3)=   0.000000
     celldm(4)=   0.000000  celldm(5)=   0.000000  celldm(6)=   0.000000

     crystal axes: (cart. coord. in units of alat)
               a(1) = (   1.000000   0.000000   0.000000 )  
               a(2) = (   0.000000   1.000000   0.000000 )  
               a(3) = (   0.000000   0.000000   1.000000 )  

     reciprocal axes: (cart. coord. in units 2 pi/alat)
               b(1) = (  1.000000  0.000000  0.000000 )  
               b(2) = (  0.000000  1.000000  0.000000 )  
               b(3) = (  0.000000  0.000000  1.000000 )  


     PseudoPot. # 1 for Al read from file:
     /opt/pp/Al.pbe-nl-kjpaw_psl.1.0.0.UPF
     MD5 check sum: 1b67f78b73fe58c7924490f171ce8a1e
     Pseudo is Projector augmented-wave + core cor, Zval =  3.0
     Generated using "atomic" code by A. Dal Corso v.6.3
     Shape of augmentation charge: PSQ
     Using radial grid of 1135 points,  4 beta functions with: 
                l(1) =   0
                l(2) =   0
                l(3) =   1
                l(4) =   1
     Q(r) pseudized with 0 coefficients 


     atomic species   valence    mass     pseudopotential
        Al             3.00    26.98200     Al( 1.00)

     No symmetry found



   Cartesian axes

     site n.     atom                  positions (alat units)
         1           Al  tau(   1) = (  -0.0014548  -0.0012843  -0.0010479  )
         2           Al  tau(   2) = (   0.2489988   0.2479097  -0.0010387  )
         3           Al  tau(   3) = (   0.2483021  -0.0011996   0.2498710  )
         4           Al  tau(   4) = (  -0.0014036   0.2495608   0.2494194  )
         5           Al  tau(   5) = (  -0.0002893  -0.0003042   0.4981964  )
         6           Al  tau(   6) = (   0.2491597   0.2480009   0.4986917  )
         7           Al  tau(   7) = (   0.2487895  -0.0007011   0.7482249  )
         8           Al  tau(   8) = (  -0.0011009   0.4991363  -0.0004739  )
         9           Al  tau(   9) = (   0.2496366   0.7491127  -0.0013851  )
        10           Al  tau(  10) = (   0.2492412   0.4993891   0.2503149  )
        11           Al  tau(  11) = (  -0.0005588   0.7491170   0.2496915  )
        12           Al  tau(  12) = (  -0.0011679   0.4988612   0.4987796  )
        13           Al  tau(  13) = (   0.2491223   0.7493082   0.4990773  )
        14           Al  tau(  14) = (   0.2485320   0.4989328   0.7481546  )
        15           Al  tau(  15) = (   0.0000370   0.7478263   0.7474492  )
        16           Al  tau(  16) = (   0.4973521  -0.0025125  -0.0013504  )
        17           Al  tau(  17) = (   0.7495001   0.2482716  -0.0014792  )
        18           Al  tau(  18) = (   0.7483231  -0.0009427   0.2477353  )
        19           Al  tau(  19) = (   0.4972042   0.2482898   0.2489888  )
        20           Al  tau(  20) = (   0.4985769  -0.0014788   0.4979974  )
        21           Al  tau(  21) = (   0.7483586   0.2498607   0.4985665  )
        22           Al  tau(  22) = (   0.7489534  -0.0025516   0.7484845  )
        23           Al  tau(  23) = (   0.4988216   0.2483999   0.7487809  )
        24           Al  tau(  24) = (   0.4987233   0.4982183  -0.0013436  )
        25           Al  tau(  25) = (   0.7480817   0.7491443  -0.0022085  )
        26           Al  tau(  26) = (   0.7477574   0.4990724   0.2497827  )
        27           Al  tau(  27) = (   0.4990841   0.7478765   0.2484598  )
        28           Al  tau(  28) = (   0.4990318   0.4978321   0.4995226  )
        29           Al  tau(  29) = (   0.7473687   0.7490921   0.4988405  )
        30           Al  tau(  30) = (   0.7493470   0.4986257   0.7480901  )
        31           Al  tau(  31) = (   0.4984637   0.7487155   0.7492402  )

     number of k points=    14  Marzari-Vanderbilt smearing, width (Ry)=  0.0200
                       cart. coord. in units 2pi/alat
        k(    1) = (   0.1666667   0.1666667   0.1666667), wk =   0.1481481
        k(    2) = (   0.1666667   0.1666667  -0.5000000), wk =   0.1481481
        k(    3) = (   0.1666667  -0.5000000  -0.5000000), wk =   0.1481481
        k(    4) = (  -0.5000000  -0.5000000  -0.5000000), wk =   0.0740741
        k(    5) = (  -0.1666667  -0.1666667   0.1666667), wk =   0.1481481
        k(    6) = (  -0.1666667   0.1666667  -0.1666667), wk =   0.1481481
        k(    7) = (   0.1666667  -0.1666667  -0.1666667), wk =   0.1481481
        k(    8) = (  -0.1666667   0.1666667   0.5000000), wk =   0.1481481
        k(    9) = (  -0.5000000  -0.1666667   0.1666667), wk =   0.1481481
        k(   10) = (   0.5000000  -0.1666667  -0.1666667), wk =   0.1481481
        k(   11) = (  -0.1666667  -0.5000000   0.1666667), wk =   0.1481481
        k(   12) = (  -0.1666667   0.5000000  -0.1666667), wk =   0.1481481
        k(   13) = (  -0.5000000   0.1666667   0.5000000), wk =   0.1481481
        k(   14) = (  -0.5000000   0.5000000   0.1666667), wk =   0.1481481

     Dense  grid:    10395 G-vectors     FFT dimensions: (  27,  27,  27)

     Smooth grid:     7153 G-vectors     FFT dimensions: (  25,  25,  25)

     Estimated max dynamical RAM per process >      43.09 MB

     Initial potential from superposition of free atoms

     starting charge   92.92900, renormalised to   93.00000
     Starting wfcs are  124 randomized atomic wfcs
     Checking if some PAW data can be deallocated... 

     total cpu time spent up to now is        3.3 secs

     Self-consistent Calculation

     iteration #  1     ecut=    25.00 Ry     beta= 0.10
     Davidson diagonalization with overlap
     ethr =  1.00E-02,  avg # of iterations =  4.7

     total cpu time spent up to now is        9.5 secs

     total energy              =   -1057.36538348 Ry
     Harris-Foulkes estimate   =   -1059.37418601 Ry
     estimated scf accuracy    <       9.39817572 Ry

     iteration #  2     ecut=    25.00 Ry     beta= 0.10
     Davidson diagonalization with overlap
     ethr =  1.00E-02,  avg # of iterations =  1.0

     total cpu time spent up to now is       12.5 secs

     total energy              =   -1050.29627789 Ry
     Harris-Foulkes estimate   =   -1057.43295222 Ry
     estimated scf accuracy    <       7.51365018 Ry

     iteration #  3     ecut=    25.00 Ry     beta= 0.10
     Davidson diagonalization with overlap
     ethr =  8.08E-03,  avg # of iterations =  3.0

     total cpu time spent up to now is       16.2 secs

     total energy              =   -1052.40633468 Ry
     Harris-Foulkes estimate   =   -1051.96064404 Ry
     estimated scf accuracy    <       1.13090321 Ry

     iteration #  4     ecut=    25.00 Ry     beta= 0.10
     Davidson diagonalization with overlap
     ethr =  1.22E-03,  avg # of iterations =  4.2

     total cpu time spent up to now is       20.3 secs

     total energy              =   -1051.72736018 Ry
     Harris-Foulkes estimate   =   -1052.66548513 Ry
     estimated scf accuracy    <       0.91568250 Ry

     iteration #  5     ecut=    25.00 Ry     beta= 0.10
     Davidson diagonalization with overlap
     ethr =  9.85E-04,  avg # of iterations =  2.9

     total cpu time spent up to now is       24.1 secs

     total energy              =   -1051.96946487 Ry
     Harris-Foulkes estimate   =   -1051.96681585 Ry
     estimated scf accuracy    <       0.18788612 Ry

     iteration #  6     ecut=    25.00 Ry     beta= 0.10
     Davidson diagonalization with overlap
     ethr =  2.02E-04,  avg # of iterations =  4.7

     total cpu time spent up to now is       27.9 secs

     total energy              =   -1051.97955984 Ry
     Harris-Foulkes estimate   =   -1051.98947279 Ry
     estimated scf accuracy    <       0.09506402 Ry

     iteration #  7     ecut=    25.00 Ry     beta= 0.10
     Davidson diagonalization with overlap
     ethr =  1.02E-04,  avg # of iterations =  4.4

     total cpu time spent up to now is       32.2 secs

     total energy              =   -1051.96554378 Ry
     Harris-Foulkes estimate   =   -1052.02791430 Ry
     estimated scf accuracy    <       0.34618497 Ry

     iteration #  8     ecut=    25.00 Ry     beta= 0.10
     Davidson diagonalization with overlap
     ethr =  1.02E-04,  avg # of iterations =  3.6

     total cpu time spent up to now is       36.0 secs

     total energy              =   -1052.00272746 Ry
     Harris-Foulkes estimate   =   -1052.00130754 Ry
     estimated scf accuracy    <       0.00779287 Ry

     iteration #  9     ecut=    25.00 Ry     beta= 0.10
     Davidson diagonalization with overlap
     ethr =  8.38E-06,  avg # of iterations = 10.1

     total cpu time spent up to now is       41.7 secs

     total energy              =   -1052.00262382 Ry
     Harris-Foulkes estimate   =   -1052.00550722 Ry
     estimated scf accuracy    <       0.01022863 Ry

     iteration # 10     ecut=    25.00 Ry     beta= 0.10
     Davidson diagonalization with overlap
     ethr =  8.38E-06,  avg # of iterations =  1.0

     total cpu time spent up to now is       44.7 secs

     total energy              =   -1052.00123205 Ry
     Harris-Foulkes estimate   =   -1052.00292815 Ry
     estimated scf accuracy    <       0.00575049 Ry

     iteration # 11     ecut=    25.00 Ry     beta= 0.10
     Davidson diagonalization with overlap
     ethr =  6.18E-06,  avg # of iterations =  1.7

     total cpu time spent up to now is       47.7 secs

     total energy              =   -1052.00137942 Ry
     Harris-Foulkes estimate   =   -1052.00170677 Ry
     estimated scf accuracy    <       0.00038634 Ry

     iteration # 12     ecut=    25.00 Ry     beta= 0.10
     Davidson diagonalization with overlap
     ethr =  4.15E-07,  avg # of iterations =  7.1

     total cpu time spent up to now is       52.9 secs

     total energy              =   -1052.00122193 Ry
     Harris-Foulkes estimate   =   -1052.00148673 Ry
     estimated scf accuracy    <       0.00020366 Ry

     iteration # 13     ecut=    25.00 Ry     beta= 0.10
     Davidson diagonalization with overlap
     ethr =  2.19E-07,  avg # of iterations =  1.7

     total cpu time spent up to now is       56.0 secs

     total energy              =   -1052.00107116 Ry
     Harris-Foulkes estimate   =   -1052.00124490 Ry
     estimated scf accuracy    <       0.00007708 Ry

     iteration # 14     ecut=    25.00 Ry     beta= 0.10
     Davidson diagonalization with overlap
     ethr =  8.29E-08,  avg # of iterations =  3.9

     total cpu time spent up to now is       61.2 secs

     total energy              =   -1052.00110845 Ry
     Harris-Foulkes estimate   =   -1052.00110619 Ry
     estimated scf accuracy    <       0.00007514 Ry

     iteration # 15     ecut=    25.00 Ry     beta= 0.10
     Davidson diagonalization with overlap
     ethr =  8.08E-08,  avg # of iterations =  1.0

     total cpu time spent up to now is       64.1 secs

     total energy              =   -1052.00109374 Ry
     Harris-Foulkes estimate   =   -1052.00110895 Ry
     estimated scf accuracy    <       0.00010267 Ry

     iteration # 16     ecut=    25.00 Ry     beta= 0.10
     Davidson diagonalization with overlap
     ethr =  8.08E-08,  avg # of iterations =  3.0

     total cpu time spent up to now is       67.5 secs

     total energy              =   -1052.00109189 Ry
     Harris-Foulkes estimate   =   -1052.00111278 Ry
     estimated scf accuracy    <       0.00002773 Ry

     iteration # 17     ecut=    25.00 Ry     beta= 0.10
     Davidson diagonalization with overlap
     ethr =  2.98E-08,  avg # of iterations =  2.8

     total cpu time spent up to now is       71.3 secs

     total energy              =   -1052.00109914 Ry
     Harris-Foulkes estimate   =   -1052.00110039 Ry
     estimated scf accuracy    <       0.00000941 Ry

     iteration # 18     ecut=    25.00 Ry     beta= 0.10
     Davidson diagonalization with overlap
     ethr =  1.01E-08,  avg # of iterations =  1.1

     total cpu time spent up to now is       74.2 secs

     total energy              =   -1052.00109804 Ry
     Harris-Foulkes estimate   =   -1052.00109952 Ry
     estimated scf accuracy    <       0.00000661 Ry

     iteration # 19     ecut=    25.00 Ry     beta= 0.10
     Davidson diagonalization with overlap
     ethr =  7.11E-09,  avg # of iterations =  1.0

     total cpu time spent up to now is       77.1 secs

     total energy              =   -1052.00109615 Ry
     Harris-Foulkes estimate   =   -1052.00109820 Ry
     estimated scf accuracy    <       0.00000363 Ry

     iteration # 20     ecut=    25.00 Ry     beta= 0.10
     Davidson diagonalization with overlap
     ethr =  3.91E-09,  avg # of iterations =  2.6

     total cpu time spent up to now is       80.4 secs

     End of self-consistent calculation

          k = 0.1667 0.1667 0.1667 (   922 PWs)   bands (ev):

    39.2769  42.9277  45.6633  45.6931  46.4015  47.0953  47.3497  47.3566
    48.0932  48.1193  48.8613  49.4972  49.5263  50.5845  50.8368  50.8987
    50.9111  50.9671  51.3656  51.3784  51.5494  51.6765  51.7124  51.7555
    52.6080  52.6227  52.9392  53.5371  53.9013  53.9365  54.4967  54.5007
    56.4668  56.7570  56.7957  58.5973  59.2646  59.2783  59.3351  60.4907
    61.0821  61.1007  61.2644  61.2898  61.2988  61.6590  61.6787  62.0219
    62.3977  62.4205  62.4750  62.8561  63.1168  63.1402  63.7920  63.8060

          k = 0.1667 0.1667-0.5000 (   904 PWs)   bands (ev):

    39.8910  42.8764  44.7318  47.0869  47.1175  47.2051  47.8204  47.8458
    48.7196  48.7771  48.8005  49.1252  49.1589  49.3073  49.4284  50.0980
    50.3202  50.6056  51.8636  51.8904  52.0165  52.1823  52.3812  52.3969
    52.4445  52.5515  52.6126  52.7587  54.1710  54.5689  54.6303  55.3244
    56.8695  57.0370  58.7141  58.7509  58.8707  59.0221  59.6461  59.6576
    59.9825  60.1196  60.1562  60.4529  60.7123  60.7525  60.8754  61.0148
    61.0858  61.2339  61.2718  61.9586  62.1759  62.8045  63.6719  63.8530

          k = 0.1667-0.5000-0.5000 (   920 PWs)   bands (ev):

    40.2504  44.4987  44.5456  44.5741  46.6423  48.2603  48.3296  48.3554
    49.1685  49.5326  49.5461  49.5809  49.6700  49.8017  49.8064  50.3504
    50.5273  50.5615  50.5709  50.6116  50.8180  50.8293  50.9521  53.3593
    53.4605  53.4710  53.5035  53.5666  53.6843  53.6914  54.7891  56.5336
    56.9273  57.8813  57.9753  57.9855  58.1360  58.1673  58.5116  58.5725
    59.5602  59.7619  59.7777  60.5623  60.7386  60.8397  60.8785  60.9157
    60.9400  60.9853  61.0054  61.1044  61.3493  63.0468  63.0805  63.2568

          k =-0.5000-0.5000-0.5000 (   912 PWs)   bands (ev):

    40.4615  45.8900  45.9089  45.9214  45.9782  45.9898  46.0322  46.0549
    49.6384  51.1877  51.1934  51.2079  51.2141  51.2211  51.2342  51.2442
    51.3224  51.3473  51.3551  51.3671  51.3803  51.4040  51.4084  51.4293
    51.4686  51.4896  51.4936  51.8697  51.8805  51.8896  55.6101  55.6224
    58.1692  59.1947  59.2077  59.2247  59.2643  59.3150  59.3291  59.3842
    59.3938  59.4097  59.4187  59.4542  59.4697  59.4962  59.5044  59.5278
    59.5732  59.5836  59.6535  59.6584  59.8231  62.5398  62.5748  62.6305

          k =-0.1667-0.1667 0.1667 (   922 PWs)   bands (ev):

    39.2765  42.9340  45.6485  45.6719  46.4213  47.1243  47.3402  47.3507
    48.0999  48.1110  48.8843  49.4857  49.5003  50.5910  50.8370  50.8993
    50.9314  50.9513  51.3525  51.3909  51.5377  51.6861  51.7077  51.7829
    52.5892  52.6083  52.9502  53.5304  53.9118  53.9414  54.4828  54.5129
    56.4670  56.7638  56.7863  58.5954  59.2642  59.2771  59.3335  60.4991
    61.0767  61.0912  61.2579  61.2846  61.3053  61.6605  61.6674  61.9945
    62.3880  62.4423  62.4879  62.8568  63.1314  63.1718  63.7792  63.8126

          k =-0.1667 0.1667-0.1667 (   922 PWs)   bands (ev):

    39.2764  42.9357  45.6333  45.6766  46.4285  47.1316  47.3363  47.3529
    48.0921  48.1142  48.8858  49.4710  49.5065  50.6123  50.8385  50.9083
    50.9269  50.9523  51.3410  51.3721  51.5501  51.6833  51.6998  51.7873
    52.5916  52.6055  52.9548  53.5313  53.9234  53.9345  54.4786  54.5095
    56.4666  56.7740  56.7798  58.5945  59.2666  59.2730  59.3335  60.4918
    61.0672  61.0810  61.2696  61.2935  61.3068  61.6498  61.6787  61.9978
    62.3781  62.4602  62.4840  62.8452  63.1368  63.1676  63.7872  63.8148

          k = 0.1667-0.1667-0.1667 (   922 PWs)   bands (ev):

    39.2765  42.9344  45.6288  45.6933  46.4187  47.1235  47.3342  47.3534
    48.0976  48.1150  48.8889  49.4642  49.5204  50.5919  50.8375  50.9027
    50.9306  50.9504  51.3424  51.3931  51.5513  51.6801  51.7089  51.7889
    52.5864  52.6025  52.9472  53.5282  53.9193  53.9398  54.4854  54.5076
    56.4680  56.7649  56.7837  58.5933  59.2662  59.2739  59.3362  60.4993
    61.0743  61.0862  61.2634  61.2901  61.3028  61.6549  61.6722  61.9945
    62.3790  62.4489  62.4951  62.8565  63.1331  63.1660  63.7865  63.8093

          k =-0.1667 0.1667 0.5000 (   904 PWs)   bands (ev):

    39.8908  42.8762  44.7383  47.0771  47.1489  47.1517  47.8263  47.8559
    48.7187  48.7755  48.8286  49.1228  49.1433  49.2793  49.4444  50.1152
    50.3226  50.6172  51.8657  51.8872  52.0035  52.1825  52.3946  52.4085
    52.4271  52.5469  52.6060  52.7590  54.1585  54.5659  54.6411  55.3322
    56.8610  57.0281  58.7237  58.7710  58.8643  59.0275  59.6446  59.6597
    59.9846  60.1138  60.1689  60.4455  60.7078  60.7574  60.8762  60.9986
    61.0859  61.2293  61.2599  61.9557  62.1869  62.7851  63.6879  63.8604

          k =-0.5000-0.1667 0.1667 (   904 PWs)   bands (ev):

    39.8884  42.8994  44.6945  47.0882  47.1478  47.1777  47.8108  47.8560
    48.7278  48.7720  48.8186  49.1193  49.1447  49.3106  49.4492  50.0815
    50.3362  50.6250  51.8564  51.8819  51.9845  52.1836  52.3883  52.4038
    52.4531  52.5354  52.6010  52.7742  54.1572  54.5726  54.6461  55.3510
    56.8446  57.0225  58.6916  58.7734  58.8663  59.0175  59.6551  59.6738
    59.9612  60.0975  60.1824  60.4845  60.6883  60.7223  60.9021  60.9713
    61.0980  61.2268  61.2885  61.9581  62.1776  62.8374  63.6859  63.8664

          k = 0.5000-0.1667-0.1667 (   904 PWs)   bands (ev):

    39.8886  42.8994  44.6886  47.1097  47.1548  47.1816  47.7995  47.8458
    48.7262  48.7682  48.7972  49.1374  49.1458  49.3295  49.4313  50.0794
    50.3363  50.6249  51.8614  51.8775  51.9850  52.1858  52.3883  52.4040
    52.4413  52.5392  52.6103  52.7747  54.1560  54.5755  54.6383  55.3537
    56.8502  57.0303  58.6955  58.7506  58.8703  59.0083  59.6561  59.6694
    59.9571  60.0965  60.1727  60.4910  60.6860  60.7222  60.9218  60.9756
    61.0954  61.2319  61.2980  61.9482  62.1889  62.8513  63.6723  63.8573

          k =-0.1667-0.5000 0.1667 (   904 PWs)   bands (ev):

    39.8906  42.8823  44.7212  47.1018  47.1451  47.1523  47.8243  47.8486
    48.7210  48.7774  48.8175  49.1329  49.1423  49.2915  49.4390  50.1055
    50.3244  50.6202  51.8607  51.8878  51.9990  52.1806  52.3908  52.4115
    52.4447  52.5387  52.5997  52.7604  54.1589  54.5713  54.6374  55.3403
    56.8652  57.0164  58.7184  58.7666  58.8767  59.0086  59.6493  59.6614
    59.9771  60.1180  60.1657  60.4614  60.7081  60.7476  60.8813  60.9871
    61.0895  61.2354  61.2662  61.9570  62.1789  62.8064  63.6817  63.8634

          k =-0.1667 0.5000-0.1667 (   904 PWs)   bands (ev):

    39.8906  42.8824  44.7173  47.1081  47.1323  47.1759  47.8088  47.8567
    48.7212  48.7749  48.8047  49.1314  49.1572  49.3067  49.4301  50.0926
    50.3220  50.6138  51.8672  51.8847  52.0061  52.1821  52.3886  52.3985
    52.4282  52.5508  52.6176  52.7622  54.1657  54.5703  54.6332  55.3354
    56.8711  57.0238  58.7190  58.7452  58.8867  58.9966  59.6532  59.6603
    59.9721  60.1151  60.1632  60.4622  60.7186  60.7440  60.8850  60.9927
    61.0894  61.2272  61.2812  61.9573  62.1823  62.8238  63.6711  63.8502

          k =-0.5000 0.1667 0.5000 (   920 PWs)   bands (ev):

    40.2502  44.4950  44.5378  44.5912  46.6266  48.2682  48.3202  48.3660
    49.1709  49.5348  49.5431  49.5771  49.6671  49.7988  49.8188  50.3454
    50.5339  50.5546  50.5804  50.6258  50.8077  50.8201  50.9538  53.3574
    53.4629  53.4662  53.5034  53.5641  53.6902  53.6920  54.7921  56.5304
    56.9283  57.8556  57.9549  58.0088  58.1293  58.1527  58.5413  58.5759
    59.5560  59.7585  59.7844  60.5285  60.7546  60.8313  60.8937  60.9069
    60.9388  60.9873  61.0083  61.1001  61.3773  63.0612  63.1095  63.2202

          k =-0.5000 0.5000 0.1667 (   920 PWs)   bands (ev):

    40.2509  44.4964  44.5427  44.5786  46.6313  48.2862  48.3188  48.3493
    49.1718  49.5343  49.5435  49.5757  49.6687  49.8097  49.8193  50.3460
    50.5317  50.5517  50.5774  50.6331  50.8018  50.8145  50.9550  53.3572
    53.4588  53.4690  53.5033  53.5628  53.6933  53.6977  54.7930  56.5229
    56.9219  57.8288  57.9729  57.9974  58.1179  58.1539  58.5413  58.6143
    59.5528  59.7584  59.7850  60.5077  60.7518  60.8336  60.8861  60.9068
    60.9592  60.9904  61.0046  61.1019  61.3905  63.0745  63.1153  63.1964

     the Fermi energy is    61.0560 ev

!    total energy              =   -1052.00109713 Ry
     Harris-Foulkes estimate   =   -1052.00109678 Ry
     estimated scf accuracy    <       0.00000031 Ry

     total all-electron energy =    -14882.427293 Ry

     The total energy is the sum of the following terms:

     one-electron contribution =     520.93986848 Ry
     hartree contribution      =       3.46173575 Ry
     xc contribution           =    -141.53714487 Ry
     ewald contribution        =    -330.83463596 Ry
     one-center paw contrib.   =   -1104.02026552 Ry
     smearing contrib. (-TS)   =      -0.01065499 Ry

     convergence has been achieved in  20 iterations

     Forces acting on atoms (cartesian axes, Ry/au):

     atom    1 type  1   force =     0.02676862    1.02835492   -1.06671937
     atom    2 type  1   force =    -1.08234809    0.03067020   -1.07216701
     atom    3 type  1   force =    -0.03291631   -0.01160152   -0.02778650
     atom    4 type  1   force =     0.00326956    0.03920089   -0.03140535
     atom    5 type  1   force =    -0.09178556    1.08105051    1.08752023
     atom    6 type  1   force =    -1.07126873    0.02601404    1.10263127
     atom    7 type  1   force =    -1.11366450    1.08522376    0.00037648
     atom    8 type  1   force =     0.00278827   -1.02875252   -1.01747957
     atom    9 type  1   force =    -0.05466345   -0.00543001   -0.01705040
     atom   10 type  1   force =    -0.01209956   -0.00863621   -0.01260566
     atom   11 type  1   force =    -0.03477449   -0.02624654   -0.01487225
     atom   12 type  1   force =    -0.00623005   -1.08626014    1.03772484
     atom   13 type  1   force =     0.05013953    0.00508500    0.03739487
     atom   14 type  1   force =    -1.07595058   -1.10644823    0.00529241
     atom   15 type  1   force =     0.00046743    0.00176883    0.00334553
     atom   16 type  1   force =     0.00704580    0.06756518   -0.00072772
     atom   17 type  1   force =     1.03770876    0.00703251   -1.07280311
     atom   18 type  1   force =     0.03124983    0.02069187    0.01465592
     atom   19 type  1   force =     0.02517154    0.00758276   -0.06721379
     atom   20 type  1   force =     0.05521169    0.03357659    0.02066506
     atom   21 type  1   force =     1.06399904   -0.07715340    1.07590583
     atom   22 type  1   force =     1.09308058    1.07882736   -0.02573507
     atom   23 type  1   force =     0.03370378   -0.01445152    0.04245593
     atom   24 type  1   force =     0.00837572   -0.06298945   -0.03300429
     atom   25 type  1   force =     0.06182884   -0.02342281   -0.02031491
     atom   26 type  1   force =     0.02302031   -0.00168571   -0.04482004
     atom   27 type  1   force =    -0.00838920   -0.01229285    0.00139379
     atom   28 type  1   force =    -0.02420551   -0.01582417    0.05369615
     atom   29 type  1   force =     0.02061868    0.04958318    0.02347164
     atom   30 type  1   force =     1.08970493   -1.05904449    0.03497368
     atom   31 type  1   force =    -0.02585689   -0.02198801   -0.01679859

     Total force =     5.257385     Total SCF correction =     0.000526


     Computing stress (Cartesian axis) and pressure

          total   stress  (Ry/bohr**3)                   (kbar)     P=85699.99
   0.58272662   0.00011239   0.00009130      85722.03     16.53     13.43
   0.00011239   0.58254701   0.00005097         16.53  85695.61      7.50
   0.00009130   0.00005097   0.58245665         13.43      7.50  85682.32


     Writing output data file zXMKBXkCnMzNKxLE.save/

     init_run     :      3.04s CPU      3.06s WALL (       1 calls)
     electrons    :     77.00s CPU     77.07s WALL (       1 calls)
     forces       :      0.87s CPU      0.88s WALL (       1 calls)
     stress       :      0.95s CPU      0.95s WALL (       1 calls)

     Called by init_run:
     wfcinit      :      2.00s CPU      2.00s WALL (       1 calls)
     potinit      :      0.90s CPU      0.92s WALL (       1 calls)
     hinit0       :      0.11s CPU      0.11s WALL (       1 calls)

     Called by electrons:
     c_bands      :     53.10s CPU     53.16s WALL (      20 calls)
     sum_band     :      5.33s CPU      5.34s WALL (      20 calls)
     v_of_rho     :      0.17s CPU      0.17s WALL (      21 calls)
     newd         :      0.44s CPU      0.45s WALL (      21 calls)
     PAW_pot      :     18.83s CPU     18.85s WALL (      21 calls)
     mix_rho      :      0.03s CPU      0.03s WALL (      20 calls)

     Called by c_bands:
     init_us_2    :      0.28s CPU      0.28s WALL (     602 calls)
     cegterg      :     52.31s CPU     52.37s WALL (     280 calls)

     Called by sum_band:
     sum_band:bec :      0.05s CPU      0.05s WALL (     280 calls)
     addusdens    :      0.18s CPU      0.18s WALL (      20 calls)

     Called by *egterg:
     h_psi        :     24.14s CPU     24.19s WALL (    1213 calls)
     s_psi        :      7.73s CPU      7.73s WALL (    1213 calls)
     g_psi        :      0.07s CPU      0.07s WALL (     919 calls)
     cdiaghg      :      9.37s CPU      9.37s WALL (    1199 calls)

     Called by h_psi:
     h_psi:pot    :     24.09s CPU     24.13s WALL (    1213 calls)
     h_psi:calbec :      9.69s CPU      9.71s WALL (    1213 calls)
     vloc_psi     :      6.67s CPU      6.70s WALL (    1213 calls)
     add_vuspsi   :      7.72s CPU      7.72s WALL (    1213 calls)

     General routines
     calbec       :     14.24s CPU     14.27s WALL (    1563 calls)
     fft          :      0.07s CPU      0.07s WALL (     296 calls)
     ffts         :      0.00s CPU      0.00s WALL (      41 calls)
     fftw         :      7.05s CPU      7.08s WALL (   98276 calls)
     interpolate  :      0.01s CPU      0.01s WALL (      21 calls)

     Parallel routines

     PWSCF        :   1m22.15s CPU   1m22.27s WALL


   This run was terminated on:  16:45:43  18Mar2020            

=------------------------------------------------------------------------------=
   JOB DONE.
=------------------------------------------------------------------------------=
