
     Program PWSCF v.6.4.1 starts on 18Mar2020 at 17: 9:32 

     This program is part of the open-source Quantum ESPRESSO suite
     for quantum simulation of materials; please cite
         "P. Giannozzi et al., J. Phys.:Condens. Matter 21 395502 (2009);
         "P. Giannozzi et al., J. Phys.:Condens. Matter 29 465901 (2017);
          URL http://www.quantum-espresso.org", 
     in publications or presentations arising from this work. More details at
     http://www.quantum-espresso.org/quote

     Parallel version (MPI), running on     1 processors

     MPI processes distributed on     1 nodes
     Reading input from wd/configs/1/config_0009.in
Warning: card &IONS ignored
Warning: card ION_DYNAMICS = 'BFGS', ignored
Warning: card / ignored
Warning: card &CELL ignored
Warning: card CELL_DYNAMICS = 'BFGS', ignored
Warning: card CELL_FACTOR = 2.0, ignored
Warning: card PRESS = 0.0, ignored
Warning: card / ignored

     Current dimensions of program PWSCF are:
     Max number of different atomic species (ntypx) = 10
     Max number of k-points (npk) =  40000
     Max angular momentum in pseudopotentials (lmaxx) =  3
               file Al.pbe-nl-kjpaw_psl.1.0.0.UPF: wavefunction(s)  3S 3P renormalized

     Subspace diagonalization in iterative solution of the eigenvalue problem:
     a serial algorithm will be used


     G-vector sticks info
     --------------------
     sticks:   dense  smooth     PW     G-vecs:    dense   smooth      PW
     Sum         593     481    149                11067     7809    1419



     bravais-lattice index     =            0
     lattice parameter (alat)  =       7.7191  a.u.
     unit-cell volume          =     459.9359 (a.u.)^3
     number of atoms/cell      =           33
     number of atomic types    =            1
     number of electrons       =        99.00
     number of Kohn-Sham states=           60
     kinetic-energy cutoff     =      25.0000  Ry
     charge density cutoff     =     126.0000  Ry
     convergence threshold     =      1.0E-06
     mixing beta               =       0.1000
     number of iterations used =           10  TF        mixing
     Exchange-correlation      = SLA PW PBX PBC ( 1  4  3  4 0 0)

     celldm(1)=   7.719084  celldm(2)=   0.000000  celldm(3)=   0.000000
     celldm(4)=   0.000000  celldm(5)=   0.000000  celldm(6)=   0.000000

     crystal axes: (cart. coord. in units of alat)
               a(1) = (   1.000000   0.000000   0.000000 )  
               a(2) = (   0.000000   1.000000   0.000000 )  
               a(3) = (   0.000000   0.000000   1.000000 )  

     reciprocal axes: (cart. coord. in units 2 pi/alat)
               b(1) = (  1.000000  0.000000  0.000000 )  
               b(2) = (  0.000000  1.000000  0.000000 )  
               b(3) = (  0.000000  0.000000  1.000000 )  


     PseudoPot. # 1 for Al read from file:
     /opt/pp/Al.pbe-nl-kjpaw_psl.1.0.0.UPF
     MD5 check sum: 1b67f78b73fe58c7924490f171ce8a1e
     Pseudo is Projector augmented-wave + core cor, Zval =  3.0
     Generated using "atomic" code by A. Dal Corso v.6.3
     Shape of augmentation charge: PSQ
     Using radial grid of 1135 points,  4 beta functions with: 
                l(1) =   0
                l(2) =   0
                l(3) =   1
                l(4) =   1
     Q(r) pseudized with 0 coefficients 


     atomic species   valence    mass     pseudopotential
        Al             3.00    26.98200     Al( 1.00)

     No symmetry found



   Cartesian axes

     site n.     atom                  positions (alat units)
         1           Al  tau(   1) = (  -0.0014248  -0.0012579  -0.0010263  )
         2           Al  tau(   2) = (   0.2490195   0.2479528  -0.0010173  )
         3           Al  tau(   3) = (   0.2483371  -0.0011748   0.2498737  )
         4           Al  tau(   4) = (  -0.0013746   0.2495699   0.2494313  )
         5           Al  tau(   5) = (  -0.0002833  -0.0002979   0.4982336  )
         6           Al  tau(   6) = (   0.2491770   0.2480421   0.4987187  )
         7           Al  tau(   7) = (   0.2488145  -0.0006866   0.7482615  )
         8           Al  tau(   8) = (  -0.0010782   0.2491541   0.7495359  )
         9           Al  tau(   9) = (  -0.0003559   0.4991310  -0.0013566  )
        10           Al  tau(  10) = (   0.2492569   0.7494017   0.0003084  )
        11           Al  tau(  11) = (   0.2494527   0.4991352   0.2496978  )
        12           Al  tau(  12) = (  -0.0011438   0.7488847   0.2488048  )
        13           Al  tau(  13) = (  -0.0008596   0.4993224   0.4990963  )
        14           Al  tau(  14) = (   0.2485622   0.7489548   0.4981927  )
        15           Al  tau(  15) = (   0.2500362   0.4978711   0.7475017  )
        16           Al  tau(  16) = (  -0.0025933   0.7475393   0.7486774  )
        17           Al  tau(  17) = (   0.2495104   0.2483072   0.2485513  )
        18           Al  tau(  18) = (   0.4983577  -0.0009233  -0.0022180  )
        19           Al  tau(  19) = (   0.7472618   0.2483251  -0.0009903  )
        20           Al  tau(  20) = (   0.7486062  -0.0014484   0.2480386  )
        21           Al  tau(  21) = (   0.4983924   0.2498635   0.2485960  )
        22           Al  tau(  22) = (   0.4989750  -0.0024990   0.4985157  )
        23           Al  tau(  23) = (   0.7488459   0.2484329   0.4988060  )
        24           Al  tau(  24) = (   0.7487496  -0.0017450   0.7486841  )
        25           Al  tau(  25) = (   0.4981212   0.2491619   0.7478370  )
        26           Al  tau(  26) = (   0.4978037   0.4990916  -0.0002128  )
        27           Al  tau(  27) = (   0.7491029   0.7479202  -0.0015084  )
        28           Al  tau(  28) = (   0.7490518   0.4978768   0.2495325  )
        29           Al  tau(  29) = (   0.4974230   0.7491108   0.2488644  )
        30           Al  tau(  30) = (   0.4993604   0.4986540   0.4981294  )
        31           Al  tau(  31) = (   0.7484954   0.7487419   0.4992559  )
        32           Al  tau(  32) = (   0.7487607   0.4985013   0.7483789  )
        33           Al  tau(  33) = (   0.4981296   0.7477779   0.7486603  )

     number of k points=    14  Marzari-Vanderbilt smearing, width (Ry)=  0.0200
                       cart. coord. in units 2pi/alat
        k(    1) = (   0.1666667   0.1666667   0.1666667), wk =   0.1481481
        k(    2) = (   0.1666667   0.1666667  -0.5000000), wk =   0.1481481
        k(    3) = (   0.1666667  -0.5000000  -0.5000000), wk =   0.1481481
        k(    4) = (  -0.5000000  -0.5000000  -0.5000000), wk =   0.0740741
        k(    5) = (  -0.1666667  -0.1666667   0.1666667), wk =   0.1481481
        k(    6) = (  -0.1666667   0.1666667  -0.1666667), wk =   0.1481481
        k(    7) = (   0.1666667  -0.1666667  -0.1666667), wk =   0.1481481
        k(    8) = (  -0.1666667   0.1666667   0.5000000), wk =   0.1481481
        k(    9) = (  -0.5000000  -0.1666667   0.1666667), wk =   0.1481481
        k(   10) = (   0.5000000  -0.1666667  -0.1666667), wk =   0.1481481
        k(   11) = (  -0.1666667  -0.5000000   0.1666667), wk =   0.1481481
        k(   12) = (  -0.1666667   0.5000000  -0.1666667), wk =   0.1481481
        k(   13) = (  -0.5000000   0.1666667   0.5000000), wk =   0.1481481
        k(   14) = (  -0.5000000   0.5000000   0.1666667), wk =   0.1481481

     Dense  grid:    11067 G-vectors     FFT dimensions: (  27,  27,  27)

     Smooth grid:     7809 G-vectors     FFT dimensions: (  25,  25,  25)

     Estimated max dynamical RAM per process >      47.92 MB

     Initial potential from superposition of free atoms

     starting charge   98.92442, renormalised to   99.00000
     Starting wfcs are  132 randomized atomic wfcs
     Checking if some PAW data can be deallocated... 

     total cpu time spent up to now is        3.8 secs

     Self-consistent Calculation

     iteration #  1     ecut=    25.00 Ry     beta= 0.10
     Davidson diagonalization with overlap
     ethr =  1.00E-02,  avg # of iterations =  4.7

     negative rho (up, down):  3.306E-01 0.000E+00

     total cpu time spent up to now is       11.3 secs

     total energy              =   -1131.61126322 Ry
     Harris-Foulkes estimate   =   -1131.77054990 Ry
     estimated scf accuracy    <      72.48925719 Ry

     iteration #  2     ecut=    25.00 Ry     beta= 0.10
     Davidson diagonalization with overlap
     ethr =  1.00E-02,  avg # of iterations =  2.2

     negative rho (up, down):  1.586E-02 0.000E+00

     total cpu time spent up to now is       14.9 secs

     total energy              =   -1129.61152051 Ry
     Harris-Foulkes estimate   =   -1132.41563953 Ry
     estimated scf accuracy    <      97.22543096 Ry

     iteration #  3     ecut=    25.00 Ry     beta= 0.10
     Davidson diagonalization with overlap
     ethr =  1.00E-02,  avg # of iterations =  3.0

     negative rho (up, down):  1.152E+00 0.000E+00

     total cpu time spent up to now is       18.9 secs

     total energy              =   -1134.42709302 Ry
     Harris-Foulkes estimate   =   -1133.67044728 Ry
     estimated scf accuracy    <     153.25286522 Ry

     iteration #  4     ecut=    25.00 Ry     beta= 0.10
     Davidson diagonalization with overlap
     ethr =  1.00E-02,  avg # of iterations =  3.4

     negative rho (up, down):  1.178E+00 0.000E+00

     total cpu time spent up to now is       23.1 secs

     total energy              =   -1146.05562829 Ry
     Harris-Foulkes estimate   =   -1145.49912055 Ry
     estimated scf accuracy    <      48.86449626 Ry

     iteration #  5     ecut=    25.00 Ry     beta= 0.10
     Davidson diagonalization with overlap
     ethr =  1.00E-02,  avg # of iterations =  1.0

     negative rho (up, down):  5.355E-01 0.000E+00

     total cpu time spent up to now is       26.4 secs

     total energy              =   -1123.20764205 Ry
     Harris-Foulkes estimate   =   -1146.15275407 Ry
     estimated scf accuracy    <      57.19808270 Ry

     iteration #  6     ecut=    25.00 Ry     beta= 0.10
     Davidson diagonalization with overlap
     ethr =  1.00E-02,  avg # of iterations =  3.0

     negative rho (up, down):  1.168E+00 0.000E+00

     total cpu time spent up to now is       30.8 secs

     total energy              =   -1121.25901673 Ry
     Harris-Foulkes estimate   =   -1126.64155895 Ry
     estimated scf accuracy    <      11.22177691 Ry

     iteration #  7     ecut=    25.00 Ry     beta= 0.10
     Davidson diagonalization with overlap
     ethr =  1.00E-02,  avg # of iterations =  2.4

     negative rho (up, down):  1.586E+00 0.000E+00

     total cpu time spent up to now is       34.4 secs

     total energy              =   -1121.68525865 Ry
     Harris-Foulkes estimate   =   -1122.37020395 Ry
     estimated scf accuracy    <       2.79106586 Ry

     iteration #  8     ecut=    25.00 Ry     beta= 0.10
     Davidson diagonalization with overlap
     ethr =  2.82E-03,  avg # of iterations =  4.3

     negative rho (up, down):  1.513E+00 0.000E+00

     total cpu time spent up to now is       38.6 secs

     total energy              =   -1122.08044046 Ry
     Harris-Foulkes estimate   =   -1121.94213365 Ry
     estimated scf accuracy    <       3.96760828 Ry

     iteration #  9     ecut=    25.00 Ry     beta= 0.10
     Davidson diagonalization with overlap
     ethr =  2.82E-03,  avg # of iterations =  1.1

     negative rho (up, down):  3.265E+00 0.000E+00

     total cpu time spent up to now is       41.9 secs

     total energy              =   -1120.09959760 Ry
     Harris-Foulkes estimate   =   -1122.11580440 Ry
     estimated scf accuracy    <       3.74575281 Ry

     iteration # 10     ecut=    25.00 Ry     beta= 0.10
     Davidson diagonalization with overlap
     ethr =  2.82E-03,  avg # of iterations =  1.6

     negative rho (up, down):  4.497E+00 0.000E+00

     total cpu time spent up to now is       45.4 secs

     total energy              =   -1118.18477705 Ry
     Harris-Foulkes estimate   =   -1120.20553207 Ry
     estimated scf accuracy    <      10.69651293 Ry

     iteration # 11     ecut=    25.00 Ry     beta= 0.10
     Davidson diagonalization with overlap
     ethr =  2.82E-03,  avg # of iterations =  1.1

     negative rho (up, down):  2.579E+00 0.000E+00

     total cpu time spent up to now is       48.8 secs

     total energy              =   -1120.75284350 Ry
     Harris-Foulkes estimate   =   -1118.23972697 Ry
     estimated scf accuracy    <      17.89244666 Ry

     iteration # 12     ecut=    25.00 Ry     beta= 0.10
     Davidson diagonalization with overlap
     ethr =  2.82E-03,  avg # of iterations =  1.0

     negative rho (up, down):  8.411E-01 0.000E+00

     total cpu time spent up to now is       52.2 secs

     total energy              =   -1122.53949541 Ry
     Harris-Foulkes estimate   =   -1120.82790627 Ry
     estimated scf accuracy    <       7.24152487 Ry

     iteration # 13     ecut=    25.00 Ry     beta= 0.10
     Davidson diagonalization with overlap
     ethr =  2.82E-03,  avg # of iterations =  2.6

     negative rho (up, down):  6.514E-01 0.000E+00

     total cpu time spent up to now is       56.0 secs

     total energy              =   -1122.83400333 Ry
     Harris-Foulkes estimate   =   -1122.84981141 Ry
     estimated scf accuracy    <       0.59462386 Ry

     iteration # 14     ecut=    25.00 Ry     beta= 0.10
     Davidson diagonalization with overlap
     ethr =  6.01E-04,  avg # of iterations =  5.7

     negative rho (up, down):  6.330E-01 0.000E+00

     total cpu time spent up to now is       61.5 secs

     total energy              =   -1123.09716990 Ry
     Harris-Foulkes estimate   =   -1123.06656744 Ry
     estimated scf accuracy    <       6.10798878 Ry

     iteration # 15     ecut=    25.00 Ry     beta= 0.10
     Davidson diagonalization with overlap
     ethr =  6.01E-04,  avg # of iterations =  3.0

     negative rho (up, down):  1.209E+00 0.000E+00

     total cpu time spent up to now is       65.2 secs

     total energy              =   -1122.54290428 Ry
     Harris-Foulkes estimate   =   -1123.12920890 Ry
     estimated scf accuracy    <      10.66089723 Ry

     iteration # 16     ecut=    25.00 Ry     beta= 0.10
     Davidson diagonalization with overlap
     ethr =  6.01E-04,  avg # of iterations =  4.9

     negative rho (up, down):  2.181E+00 0.000E+00

     total cpu time spent up to now is       70.3 secs

     total energy              =   -1124.68519608 Ry
     Harris-Foulkes estimate   =   -1123.02426244 Ry
     estimated scf accuracy    <      22.74927087 Ry

     iteration # 17     ecut=    25.00 Ry     beta= 0.10
     Davidson diagonalization with overlap
     ethr =  6.01E-04,  avg # of iterations =  4.4

     negative rho (up, down):  2.555E+00 0.000E+00

     total cpu time spent up to now is       74.9 secs

     total energy              =   -1128.63771286 Ry
     Harris-Foulkes estimate   =   -1127.36674101 Ry
     estimated scf accuracy    <      52.30413532 Ry

     iteration # 18     ecut=    25.00 Ry     beta= 0.10
     Davidson diagonalization with overlap
     ethr =  6.01E-04,  avg # of iterations =  2.1

     negative rho (up, down):  1.986E+00 0.000E+00

     total cpu time spent up to now is       78.4 secs

     total energy              =   -1126.60265087 Ry
     Harris-Foulkes estimate   =   -1128.68120794 Ry
     estimated scf accuracy    <      47.35166518 Ry

     iteration # 19     ecut=    25.00 Ry     beta= 0.10
     Davidson diagonalization with overlap
     ethr =  6.01E-04,  avg # of iterations =  3.0

     negative rho (up, down):  2.163E+00 0.000E+00

     total cpu time spent up to now is       82.1 secs

     total energy              =   -1127.37677244 Ry
     Harris-Foulkes estimate   =   -1126.69412884 Ry
     estimated scf accuracy    <      56.98298078 Ry

     iteration # 20     ecut=    25.00 Ry     beta= 0.10
     Davidson diagonalization with overlap
     ethr =  6.01E-04,  avg # of iterations =  2.0

     negative rho (up, down):  2.453E+00 0.000E+00

     total cpu time spent up to now is       85.5 secs

     total energy              =   -1128.48410431 Ry
     Harris-Foulkes estimate   =   -1127.39976499 Ry
     estimated scf accuracy    <      53.72129352 Ry

     iteration # 21     ecut=    25.00 Ry     beta= 0.10
     Davidson diagonalization with overlap
     ethr =  6.01E-04,  avg # of iterations =  2.0

     negative rho (up, down):  2.410E+00 0.000E+00

     total cpu time spent up to now is       89.0 secs

     total energy              =   -1127.93769825 Ry
     Harris-Foulkes estimate   =   -1128.51513986 Ry
     estimated scf accuracy    <      48.99286979 Ry

     iteration # 22     ecut=    25.00 Ry     beta= 0.10
     Davidson diagonalization with overlap
     ethr =  6.01E-04,  avg # of iterations =  2.0

     negative rho (up, down):  2.288E+00 0.000E+00

     total cpu time spent up to now is       92.5 secs

     total energy              =   -1127.19590782 Ry
     Harris-Foulkes estimate   =   -1127.96402237 Ry
     estimated scf accuracy    <      47.71828730 Ry

     iteration # 23     ecut=    25.00 Ry     beta= 0.10
     Davidson diagonalization with overlap
     ethr =  6.01E-04,  avg # of iterations =  2.0

     negative rho (up, down):  2.206E+00 0.000E+00

     total cpu time spent up to now is       96.0 secs

     total energy              =   -1126.22507403 Ry
     Harris-Foulkes estimate   =   -1127.24511393 Ry
     estimated scf accuracy    <      51.87378883 Ry

     iteration # 24     ecut=    25.00 Ry     beta= 0.10
     Davidson diagonalization with overlap
     ethr =  6.01E-04,  avg # of iterations =  2.0

     negative rho (up, down):  2.174E+00 0.000E+00

     total cpu time spent up to now is       99.5 secs

     total energy              =   -1125.35312438 Ry
     Harris-Foulkes estimate   =   -1126.26718954 Ry
     estimated scf accuracy    <      54.99156673 Ry

     iteration # 25     ecut=    25.00 Ry     beta= 0.10
     Davidson diagonalization with overlap
     ethr =  6.01E-04,  avg # of iterations =  3.0

     negative rho (up, down):  2.068E+00 0.000E+00

     total cpu time spent up to now is      103.2 secs

     total energy              =   -1124.23701552 Ry
     Harris-Foulkes estimate   =   -1125.57028164 Ry
     estimated scf accuracy    <      72.57484192 Ry

     iteration # 26     ecut=    25.00 Ry     beta= 0.10
     Davidson diagonalization with overlap
     ethr =  6.01E-04,  avg # of iterations =  2.0

     negative rho (up, down):  2.016E+00 0.000E+00

     total cpu time spent up to now is      106.9 secs

     total energy              =   -1124.69604781 Ry
     Harris-Foulkes estimate   =   -1124.30426688 Ry
     estimated scf accuracy    <      78.41612024 Ry

     iteration # 27     ecut=    25.00 Ry     beta= 0.10
     Davidson diagonalization with overlap
     ethr =  6.01E-04,  avg # of iterations =  2.4

     negative rho (up, down):  7.456E+00 0.000E+00

     total cpu time spent up to now is      110.5 secs

     total energy              =   -1132.21044758 Ry
     Harris-Foulkes estimate   =   -1124.75093433 Ry
     estimated scf accuracy    <      69.42528653 Ry

     iteration # 28     ecut=    25.00 Ry     beta= 0.10
     Davidson diagonalization with overlap
     ethr =  6.01E-04,  avg # of iterations =  4.9

     negative rho (up, down):  7.700E+00 0.000E+00

     total cpu time spent up to now is      117.8 secs

     total energy              =   -1134.52889469 Ry
     Harris-Foulkes estimate   =   -1135.22581049 Ry
     estimated scf accuracy    <      36.29570209 Ry

     iteration # 29     ecut=    25.00 Ry     beta= 0.10
     Davidson diagonalization with overlap
     ethr =  6.01E-04,  avg # of iterations =  5.9

     negative rho (up, down):  8.971E+00 0.000E+00

     total cpu time spent up to now is      123.3 secs

     total energy              =   -1135.09484573 Ry
     Harris-Foulkes estimate   =   -1134.96212717 Ry
     estimated scf accuracy    <      25.45302940 Ry

     iteration # 30     ecut=    25.00 Ry     beta= 0.10
     Davidson diagonalization with overlap
     ethr =  6.01E-04,  avg # of iterations =  3.1

     negative rho (up, down):  9.525E+00 0.000E+00

     total cpu time spent up to now is      127.8 secs

     total energy              =   -1135.21415476 Ry
     Harris-Foulkes estimate   =   -1135.34485551 Ry
     estimated scf accuracy    <      11.81780089 Ry

     iteration # 31     ecut=    25.00 Ry     beta= 0.10
     Davidson diagonalization with overlap
     ethr =  6.01E-04,  avg # of iterations =  2.1

     negative rho (up, down):  9.666E+00 0.000E+00

     total cpu time spent up to now is      131.4 secs

     total energy              =   -1135.26044429 Ry
     Harris-Foulkes estimate   =   -1135.26621186 Ry
     estimated scf accuracy    <       8.49365013 Ry

     iteration # 32     ecut=    25.00 Ry     beta= 0.10
     Davidson diagonalization with overlap
     ethr =  6.01E-04,  avg # of iterations =  2.0

     negative rho (up, down):  9.662E+00 0.000E+00

     total cpu time spent up to now is      134.9 secs

     total energy              =   -1135.29374862 Ry
     Harris-Foulkes estimate   =   -1135.28603780 Ry
     estimated scf accuracy    <       7.63840154 Ry

     iteration # 33     ecut=    25.00 Ry     beta= 0.10
     Davidson diagonalization with overlap
     ethr =  6.01E-04,  avg # of iterations =  2.7

     negative rho (up, down):  9.802E+00 0.000E+00

     total cpu time spent up to now is      138.5 secs

     total energy              =   -1134.39713839 Ry
     Harris-Foulkes estimate   =   -1135.35400064 Ry
     estimated scf accuracy    <       7.09587648 Ry

     iteration # 34     ecut=    25.00 Ry     beta= 0.10
     Davidson diagonalization with overlap
     ethr =  6.01E-04,  avg # of iterations =  2.4

     negative rho (up, down):  9.502E+00 0.000E+00

     total cpu time spent up to now is      142.5 secs

     total energy              =   -1134.08688458 Ry
     Harris-Foulkes estimate   =   -1134.49965318 Ry
     estimated scf accuracy    <       7.24491774 Ry

     iteration # 35     ecut=    25.00 Ry     beta= 0.10
     Davidson diagonalization with overlap
     ethr =  6.01E-04,  avg # of iterations =  3.0

     negative rho (up, down):  9.193E+00 0.000E+00

     total cpu time spent up to now is      146.2 secs

     total energy              =   -1134.36755444 Ry
     Harris-Foulkes estimate   =   -1134.18393142 Ry
     estimated scf accuracy    <       4.16527879 Ry

     iteration # 36     ecut=    25.00 Ry     beta= 0.10
     Davidson diagonalization with overlap
     ethr =  6.01E-04,  avg # of iterations =  2.0

     negative rho (up, down):  8.700E+00 0.000E+00

     total cpu time spent up to now is      149.7 secs

     total energy              =   -1134.40835077 Ry
     Harris-Foulkes estimate   =   -1134.38211581 Ry
     estimated scf accuracy    <       4.45039963 Ry

     iteration # 37     ecut=    25.00 Ry     beta= 0.10
     Davidson diagonalization with overlap
     ethr =  6.01E-04,  avg # of iterations =  2.1

     negative rho (up, down):  8.638E+00 0.000E+00

     total cpu time spent up to now is      153.3 secs

     total energy              =   -1134.74103460 Ry
     Harris-Foulkes estimate   =   -1134.50913931 Ry
     estimated scf accuracy    <       3.95445100 Ry

     iteration # 38     ecut=    25.00 Ry     beta= 0.10
     Davidson diagonalization with overlap
     ethr =  6.01E-04,  avg # of iterations =  2.3

     negative rho (up, down):  8.509E+00 0.000E+00

     total cpu time spent up to now is      157.0 secs

     total energy              =   -1134.71410979 Ry
     Harris-Foulkes estimate   =   -1134.79658301 Ry
     estimated scf accuracy    <       4.43112339 Ry

     iteration # 39     ecut=    25.00 Ry     beta= 0.10
     Davidson diagonalization with overlap
     ethr =  6.01E-04,  avg # of iterations =  2.0

     negative rho (up, down):  8.480E+00 0.000E+00

     total cpu time spent up to now is      160.5 secs

     total energy              =   -1134.84719459 Ry
     Harris-Foulkes estimate   =   -1134.74530127 Ry
     estimated scf accuracy    <       3.34472713 Ry

     iteration # 40     ecut=    25.00 Ry     beta= 0.10
     Davidson diagonalization with overlap
     ethr =  6.01E-04,  avg # of iterations =  2.0

     negative rho (up, down):  8.463E+00 0.000E+00

     total cpu time spent up to now is      164.0 secs

     total energy              =   -1134.82470857 Ry
     Harris-Foulkes estimate   =   -1134.86251899 Ry
     estimated scf accuracy    <       4.25607737 Ry

     iteration # 41     ecut=    25.00 Ry     beta= 0.10
     Davidson diagonalization with overlap
     ethr =  6.01E-04,  avg # of iterations =  2.0

     negative rho (up, down):  8.541E+00 0.000E+00

     total cpu time spent up to now is      167.5 secs

     total energy              =   -1134.93783736 Ry
     Harris-Foulkes estimate   =   -1134.82826314 Ry
     estimated scf accuracy    <       3.87575294 Ry

     iteration # 42     ecut=    25.00 Ry     beta= 0.10
     Davidson diagonalization with overlap
     ethr =  6.01E-04,  avg # of iterations =  2.1

     negative rho (up, down):  8.721E+00 0.000E+00

     total cpu time spent up to now is      171.0 secs

     total energy              =   -1134.84441137 Ry
     Harris-Foulkes estimate   =   -1134.97158283 Ry
     estimated scf accuracy    <       4.43399492 Ry

     iteration # 43     ecut=    25.00 Ry     beta= 0.10
     Davidson diagonalization with overlap
     ethr =  6.01E-04,  avg # of iterations =  2.0

     negative rho (up, down):  8.510E+00 0.000E+00

     total cpu time spent up to now is      174.5 secs

     total energy              =   -1134.78247438 Ry
     Harris-Foulkes estimate   =   -1134.88096149 Ry
     estimated scf accuracy    <       4.18153206 Ry

     iteration # 44     ecut=    25.00 Ry     beta= 0.10
     Davidson diagonalization with overlap
     ethr =  6.01E-04,  avg # of iterations =  2.1

     negative rho (up, down):  8.570E+00 0.000E+00

     total cpu time spent up to now is      178.1 secs

     total energy              =   -1134.79863494 Ry
     Harris-Foulkes estimate   =   -1134.83209240 Ry
     estimated scf accuracy    <       3.64987383 Ry

     iteration # 45     ecut=    25.00 Ry     beta= 0.10
     Davidson diagonalization with overlap
     ethr =  6.01E-04,  avg # of iterations =  2.4

     negative rho (up, down):  8.967E+00 0.000E+00

     total cpu time spent up to now is      181.8 secs

     total energy              =   -1134.02438034 Ry
     Harris-Foulkes estimate   =   -1134.84412039 Ry
     estimated scf accuracy    <       5.08836078 Ry

     iteration # 46     ecut=    25.00 Ry     beta= 0.10
     Davidson diagonalization with overlap
     ethr =  6.01E-04,  avg # of iterations =  3.1

     negative rho (up, down):  8.821E+00 0.000E+00

     total cpu time spent up to now is      186.3 secs

     total energy              =   -1134.41026873 Ry
     Harris-Foulkes estimate   =   -1134.30351386 Ry
     estimated scf accuracy    <       1.13821532 Ry

     iteration # 47     ecut=    25.00 Ry     beta= 0.10
     Davidson diagonalization with overlap
     ethr =  6.01E-04,  avg # of iterations =  2.0

     negative rho (up, down):  8.776E+00 0.000E+00

     total cpu time spent up to now is      189.7 secs

     total energy              =   -1134.42210065 Ry
     Harris-Foulkes estimate   =   -1134.44951498 Ry
     estimated scf accuracy    <       0.73870566 Ry

     iteration # 48     ecut=    25.00 Ry     beta= 0.10
     Davidson diagonalization with overlap
     ethr =  6.01E-04,  avg # of iterations =  2.0

     negative rho (up, down):  8.639E+00 0.000E+00

     total cpu time spent up to now is      193.3 secs

     total energy              =   -1134.54239224 Ry
     Harris-Foulkes estimate   =   -1134.51995480 Ry
     estimated scf accuracy    <       0.49676417 Ry

     iteration # 49     ecut=    25.00 Ry     beta= 0.10
     Davidson diagonalization with overlap
     ethr =  5.02E-04,  avg # of iterations =  2.0

     negative rho (up, down):  8.683E+00 0.000E+00

     total cpu time spent up to now is      196.8 secs

     total energy              =   -1134.53017288 Ry
     Harris-Foulkes estimate   =   -1134.56088190 Ry
     estimated scf accuracy    <       0.76308803 Ry

     iteration # 50     ecut=    25.00 Ry     beta= 0.10
     Davidson diagonalization with overlap
     ethr =  5.02E-04,  avg # of iterations =  2.0

     negative rho (up, down):  8.721E+00 0.000E+00

     total cpu time spent up to now is      200.2 secs

     total energy              =   -1134.50705726 Ry
     Harris-Foulkes estimate   =   -1134.54687036 Ry
     estimated scf accuracy    <       0.73002979 Ry

     iteration # 51     ecut=    25.00 Ry     beta= 0.10
     Davidson diagonalization with overlap
     ethr =  5.02E-04,  avg # of iterations =  2.0

     negative rho (up, down):  8.698E+00 0.000E+00

     total cpu time spent up to now is      203.7 secs

     total energy              =   -1134.52137850 Ry
     Harris-Foulkes estimate   =   -1134.53112615 Ry
     estimated scf accuracy    <       0.48476472 Ry

     iteration # 52     ecut=    25.00 Ry     beta= 0.10
     Davidson diagonalization with overlap
     ethr =  4.90E-04,  avg # of iterations =  2.0

     negative rho (up, down):  8.753E+00 0.000E+00

     total cpu time spent up to now is      207.2 secs

     total energy              =   -1134.55884294 Ry
     Harris-Foulkes estimate   =   -1134.56175665 Ry
     estimated scf accuracy    <       0.32968109 Ry

     iteration # 53     ecut=    25.00 Ry     beta= 0.10
     Davidson diagonalization with overlap
     ethr =  3.33E-04,  avg # of iterations =  2.0

     negative rho (up, down):  8.783E+00 0.000E+00

     total cpu time spent up to now is      210.7 secs

     total energy              =   -1134.56043538 Ry
     Harris-Foulkes estimate   =   -1134.57130370 Ry
     estimated scf accuracy    <       0.38472471 Ry

     iteration # 54     ecut=    25.00 Ry     beta= 0.10
     Davidson diagonalization with overlap
     ethr =  3.33E-04,  avg # of iterations =  2.0

     negative rho (up, down):  8.771E+00 0.000E+00

     total cpu time spent up to now is      214.2 secs

     total energy              =   -1134.57642642 Ry
     Harris-Foulkes estimate   =   -1134.57318367 Ry
     estimated scf accuracy    <       0.34263009 Ry

     iteration # 55     ecut=    25.00 Ry     beta= 0.10
     Davidson diagonalization with overlap
     ethr =  3.33E-04,  avg # of iterations =  1.0

     negative rho (up, down):  8.778E+00 0.000E+00

     total cpu time spent up to now is      217.6 secs

     total energy              =   -1134.57393202 Ry
     Harris-Foulkes estimate   =   -1134.57741084 Ry
     estimated scf accuracy    <       0.39043392 Ry

     iteration # 56     ecut=    25.00 Ry     beta= 0.10
     Davidson diagonalization with overlap
     ethr =  3.33E-04,  avg # of iterations =  2.0

     negative rho (up, down):  8.669E+00 0.000E+00

     total cpu time spent up to now is      221.1 secs

     total energy              =   -1134.58492620 Ry
     Harris-Foulkes estimate   =   -1134.57924978 Ry
     estimated scf accuracy    <       0.29375166 Ry

     iteration # 57     ecut=    25.00 Ry     beta= 0.10
     Davidson diagonalization with overlap
     ethr =  2.97E-04,  avg # of iterations =  2.1

     negative rho (up, down):  8.674E+00 0.000E+00

     total cpu time spent up to now is      224.7 secs

     total energy              =   -1134.59909076 Ry
     Harris-Foulkes estimate   =   -1134.60353138 Ry
     estimated scf accuracy    <       0.26640603 Ry

     iteration # 58     ecut=    25.00 Ry     beta= 0.10
     Davidson diagonalization with overlap
     ethr =  2.69E-04,  avg # of iterations =  2.0

     negative rho (up, down):  8.681E+00 0.000E+00

     total cpu time spent up to now is      228.2 secs

     total energy              =   -1134.58430050 Ry
     Harris-Foulkes estimate   =   -1134.60170944 Ry
     estimated scf accuracy    <       0.18779349 Ry

     iteration # 59     ecut=    25.00 Ry     beta= 0.10
     Davidson diagonalization with overlap
     ethr =  1.90E-04,  avg # of iterations =  2.1

     negative rho (up, down):  8.615E+00 0.000E+00

     total cpu time spent up to now is      232.0 secs

     total energy              =   -1134.59399961 Ry
     Harris-Foulkes estimate   =   -1134.60274628 Ry
     estimated scf accuracy    <       0.29050587 Ry

     iteration # 60     ecut=    25.00 Ry     beta= 0.10
     Davidson diagonalization with overlap
     ethr =  1.90E-04,  avg # of iterations =  2.0

     negative rho (up, down):  8.600E+00 0.000E+00

     total cpu time spent up to now is      235.4 secs

     total energy              =   -1134.60955550 Ry
     Harris-Foulkes estimate   =   -1134.60463029 Ry
     estimated scf accuracy    <       0.11081139 Ry

     iteration # 61     ecut=    25.00 Ry     beta= 0.10
     Davidson diagonalization with overlap
     ethr =  1.12E-04,  avg # of iterations =  1.0

     negative rho (up, down):  8.617E+00 0.000E+00

     total cpu time spent up to now is      238.8 secs

     total energy              =   -1134.61834343 Ry
     Harris-Foulkes estimate   =   -1134.61106894 Ry
     estimated scf accuracy    <       0.15972052 Ry

     iteration # 62     ecut=    25.00 Ry     beta= 0.10
     Davidson diagonalization with overlap
     ethr =  1.12E-04,  avg # of iterations =  2.0

     negative rho (up, down):  8.613E+00 0.000E+00

     total cpu time spent up to now is      242.3 secs

     total energy              =   -1134.61676799 Ry
     Harris-Foulkes estimate   =   -1134.61962130 Ry
     estimated scf accuracy    <       0.21583792 Ry

     iteration # 63     ecut=    25.00 Ry     beta= 0.10
     Davidson diagonalization with overlap
     ethr =  1.12E-04,  avg # of iterations =  1.0

     negative rho (up, down):  8.589E+00 0.000E+00

     total cpu time spent up to now is      245.6 secs

     total energy              =   -1134.61416388 Ry
     Harris-Foulkes estimate   =   -1134.61728591 Ry
     estimated scf accuracy    <       0.19477213 Ry

     iteration # 64     ecut=    25.00 Ry     beta= 0.10
     Davidson diagonalization with overlap
     ethr =  1.12E-04,  avg # of iterations =  1.0

     negative rho (up, down):  8.638E+00 0.000E+00

     total cpu time spent up to now is      249.0 secs

     total energy              =   -1134.61987999 Ry
     Harris-Foulkes estimate   =   -1134.61433647 Ry
     estimated scf accuracy    <       0.20276615 Ry

     iteration # 65     ecut=    25.00 Ry     beta= 0.10
     Davidson diagonalization with overlap
     ethr =  1.12E-04,  avg # of iterations =  1.0

     negative rho (up, down):  8.642E+00 0.000E+00

     total cpu time spent up to now is      252.4 secs

     total energy              =   -1134.61511290 Ry
     Harris-Foulkes estimate   =   -1134.62089488 Ry
     estimated scf accuracy    <       0.19193817 Ry

     iteration # 66     ecut=    25.00 Ry     beta= 0.10
     Davidson diagonalization with overlap
     ethr =  1.12E-04,  avg # of iterations =  1.1

     negative rho (up, down):  8.626E+00 0.000E+00

     total cpu time spent up to now is      255.8 secs

     total energy              =   -1134.61564973 Ry
     Harris-Foulkes estimate   =   -1134.61645096 Ry
     estimated scf accuracy    <       0.15933060 Ry

     iteration # 67     ecut=    25.00 Ry     beta= 0.10
     Davidson diagonalization with overlap
     ethr =  1.12E-04,  avg # of iterations =  1.0

     negative rho (up, down):  8.649E+00 0.000E+00

     total cpu time spent up to now is      259.1 secs

     total energy              =   -1134.60643190 Ry
     Harris-Foulkes estimate   =   -1134.61603399 Ry
     estimated scf accuracy    <       0.17681414 Ry

     iteration # 68     ecut=    25.00 Ry     beta= 0.10
     Davidson diagonalization with overlap
     ethr =  1.12E-04,  avg # of iterations =  2.0

     negative rho (up, down):  8.619E+00 0.000E+00

     total cpu time spent up to now is      262.6 secs

     total energy              =   -1134.59809153 Ry
     Harris-Foulkes estimate   =   -1134.60839515 Ry
     estimated scf accuracy    <       0.10036399 Ry

     iteration # 69     ecut=    25.00 Ry     beta= 0.10
     Davidson diagonalization with overlap
     ethr =  1.01E-04,  avg # of iterations =  2.7

     negative rho (up, down):  8.626E+00 0.000E+00

     total cpu time spent up to now is      266.5 secs

     total energy              =   -1134.61324997 Ry
     Harris-Foulkes estimate   =   -1134.61232639 Ry
     estimated scf accuracy    <       0.22220021 Ry

     iteration # 70     ecut=    25.00 Ry     beta= 0.10
     Davidson diagonalization with overlap
     ethr =  1.01E-04,  avg # of iterations =  2.0

     negative rho (up, down):  8.626E+00 0.000E+00

     total cpu time spent up to now is      270.0 secs

     total energy              =   -1134.61021907 Ry
     Harris-Foulkes estimate   =   -1134.61506177 Ry
     estimated scf accuracy    <       0.31446052 Ry

     iteration # 71     ecut=    25.00 Ry     beta= 0.10
     Davidson diagonalization with overlap
     ethr =  1.01E-04,  avg # of iterations =  2.0

     negative rho (up, down):  8.628E+00 0.000E+00

     total cpu time spent up to now is      273.5 secs

     total energy              =   -1134.61040171 Ry
     Harris-Foulkes estimate   =   -1134.61204194 Ry
     estimated scf accuracy    <       0.22423473 Ry

     iteration # 72     ecut=    25.00 Ry     beta= 0.10
     Davidson diagonalization with overlap
     ethr =  1.01E-04,  avg # of iterations =  1.1

     negative rho (up, down):  8.621E+00 0.000E+00

     total cpu time spent up to now is      276.9 secs

     total energy              =   -1134.61592709 Ry
     Harris-Foulkes estimate   =   -1134.61107159 Ry
     estimated scf accuracy    <       0.22998503 Ry

     iteration # 73     ecut=    25.00 Ry     beta= 0.10
     Davidson diagonalization with overlap
     ethr =  1.01E-04,  avg # of iterations =  2.0

     negative rho (up, down):  8.625E+00 0.000E+00

     total cpu time spent up to now is      280.4 secs

     total energy              =   -1134.60629979 Ry
     Harris-Foulkes estimate   =   -1134.61930285 Ry
     estimated scf accuracy    <       0.31203596 Ry

     iteration # 74     ecut=    25.00 Ry     beta= 0.10
     Davidson diagonalization with overlap
     ethr =  1.01E-04,  avg # of iterations =  2.0

     negative rho (up, down):  8.630E+00 0.000E+00

     total cpu time spent up to now is      283.9 secs

     total energy              =   -1134.59738497 Ry
     Harris-Foulkes estimate   =   -1134.60971566 Ry
     estimated scf accuracy    <       0.19540211 Ry

     iteration # 75     ecut=    25.00 Ry     beta= 0.10
     Davidson diagonalization with overlap
     ethr =  1.01E-04,  avg # of iterations =  2.0

     negative rho (up, down):  8.638E+00 0.000E+00

     total cpu time spent up to now is      287.3 secs

     total energy              =   -1134.60360217 Ry
     Harris-Foulkes estimate   =   -1134.60285803 Ry
     estimated scf accuracy    <       0.06232169 Ry

     iteration # 76     ecut=    25.00 Ry     beta= 0.10
     Davidson diagonalization with overlap
     ethr =  6.30E-05,  avg # of iterations =  1.0

     negative rho (up, down):  8.634E+00 0.000E+00

     total cpu time spent up to now is      290.7 secs

     total energy              =   -1134.59263595 Ry
     Harris-Foulkes estimate   =   -1134.60411479 Ry
     estimated scf accuracy    <       0.07180251 Ry

     iteration # 77     ecut=    25.00 Ry     beta= 0.10
     Davidson diagonalization with overlap
     ethr =  6.30E-05,  avg # of iterations =  2.3

     negative rho (up, down):  8.620E+00 0.000E+00

     total cpu time spent up to now is      294.6 secs

     total energy              =   -1134.59852512 Ry
     Harris-Foulkes estimate   =   -1134.60199965 Ry
     estimated scf accuracy    <       0.02162238 Ry

     iteration # 78     ecut=    25.00 Ry     beta= 0.10
     Davidson diagonalization with overlap
     ethr =  2.18E-05,  avg # of iterations =  2.0

     negative rho (up, down):  8.606E+00 0.000E+00

     total cpu time spent up to now is      298.1 secs

     total energy              =   -1134.59892922 Ry
     Harris-Foulkes estimate   =   -1134.59992580 Ry
     estimated scf accuracy    <       0.02240496 Ry

     iteration # 79     ecut=    25.00 Ry     beta= 0.10
     Davidson diagonalization with overlap
     ethr =  2.18E-05,  avg # of iterations =  2.0

     negative rho (up, down):  8.594E+00 0.000E+00

     total cpu time spent up to now is      301.6 secs

     total energy              =   -1134.59078805 Ry
     Harris-Foulkes estimate   =   -1134.60077180 Ry
     estimated scf accuracy    <       0.02033003 Ry

     iteration # 80     ecut=    25.00 Ry     beta= 0.10
     Davidson diagonalization with overlap
     ethr =  2.05E-05,  avg # of iterations =  3.9

     negative rho (up, down):  8.610E+00 0.000E+00

     total cpu time spent up to now is      306.0 secs

     total energy              =   -1134.61094961 Ry
     Harris-Foulkes estimate   =   -1134.60471542 Ry
     estimated scf accuracy    <       0.12266627 Ry

     iteration # 81     ecut=    25.00 Ry     beta= 0.10
     Davidson diagonalization with overlap
     ethr =  2.05E-05,  avg # of iterations =  2.4

     negative rho (up, down):  8.604E+00 0.000E+00

     total cpu time spent up to now is      309.9 secs

     total energy              =   -1134.60114503 Ry
     Harris-Foulkes estimate   =   -1134.61423278 Ry
     estimated scf accuracy    <       0.19113267 Ry

     iteration # 82     ecut=    25.00 Ry     beta= 0.10
     Davidson diagonalization with overlap
     ethr =  2.05E-05,  avg # of iterations =  3.1

     negative rho (up, down):  8.612E+00 0.000E+00

     total cpu time spent up to now is      314.0 secs

     total energy              =   -1134.60204522 Ry
     Harris-Foulkes estimate   =   -1134.60720971 Ry
     estimated scf accuracy    <       0.08346443 Ry

     iteration # 83     ecut=    25.00 Ry     beta= 0.10
     Davidson diagonalization with overlap
     ethr =  2.05E-05,  avg # of iterations =  2.0

     negative rho (up, down):  8.614E+00 0.000E+00

     total cpu time spent up to now is      317.6 secs

     total energy              =   -1134.60315198 Ry
     Harris-Foulkes estimate   =   -1134.60435831 Ry
     estimated scf accuracy    <       0.10691520 Ry

     iteration # 84     ecut=    25.00 Ry     beta= 0.10
     Davidson diagonalization with overlap
     ethr =  2.05E-05,  avg # of iterations =  2.0

     negative rho (up, down):  8.609E+00 0.000E+00

     total cpu time spent up to now is      321.1 secs

     total energy              =   -1134.60224933 Ry
     Harris-Foulkes estimate   =   -1134.60344749 Ry
     estimated scf accuracy    <       0.08889041 Ry

     iteration # 85     ecut=    25.00 Ry     beta= 0.10
     Davidson diagonalization with overlap
     ethr =  2.05E-05,  avg # of iterations =  2.0

     negative rho (up, down):  8.607E+00 0.000E+00

     total cpu time spent up to now is      324.6 secs

     total energy              =   -1134.60016250 Ry
     Harris-Foulkes estimate   =   -1134.60263655 Ry
     estimated scf accuracy    <       0.07812324 Ry

     iteration # 86     ecut=    25.00 Ry     beta= 0.10
     Davidson diagonalization with overlap
     ethr =  2.05E-05,  avg # of iterations =  2.0

     negative rho (up, down):  8.622E+00 0.000E+00

     total cpu time spent up to now is      328.1 secs

     total energy              =   -1134.59645479 Ry
     Harris-Foulkes estimate   =   -1134.60134397 Ry
     estimated scf accuracy    <       0.06378352 Ry

     iteration # 87     ecut=    25.00 Ry     beta= 0.10
     Davidson diagonalization with overlap
     ethr =  2.05E-05,  avg # of iterations =  2.1

     negative rho (up, down):  8.623E+00 0.000E+00

     total cpu time spent up to now is      331.7 secs

     total energy              =   -1134.59839602 Ry
     Harris-Foulkes estimate   =   -1134.59769242 Ry
     estimated scf accuracy    <       0.05455861 Ry

     iteration # 88     ecut=    25.00 Ry     beta= 0.10
     Davidson diagonalization with overlap
     ethr =  2.05E-05,  avg # of iterations =  2.1

     negative rho (up, down):  8.621E+00 0.000E+00

     total cpu time spent up to now is      335.3 secs

     total energy              =   -1134.60050676 Ry
     Harris-Foulkes estimate   =   -1134.59966683 Ry
     estimated scf accuracy    <       0.07918787 Ry

     iteration # 89     ecut=    25.00 Ry     beta= 0.10
     Davidson diagonalization with overlap
     ethr =  2.05E-05,  avg # of iterations =  1.0

     negative rho (up, down):  8.612E+00 0.000E+00

     total cpu time spent up to now is      338.7 secs

     total energy              =   -1134.60034209 Ry
     Harris-Foulkes estimate   =   -1134.60071032 Ry
     estimated scf accuracy    <       0.07847762 Ry

     iteration # 90     ecut=    25.00 Ry     beta= 0.10
     Davidson diagonalization with overlap
     ethr =  2.05E-05,  avg # of iterations =  2.0

     negative rho (up, down):  8.607E+00 0.000E+00

     total cpu time spent up to now is      342.2 secs

     total energy              =   -1134.60146993 Ry
     Harris-Foulkes estimate   =   -1134.60123516 Ry
     estimated scf accuracy    <       0.05396202 Ry

     iteration # 91     ecut=    25.00 Ry     beta= 0.10
     Davidson diagonalization with overlap
     ethr =  2.05E-05,  avg # of iterations =  3.1

     negative rho (up, down):  8.619E+00 0.000E+00

     total cpu time spent up to now is      346.9 secs

     total energy              =   -1134.60030262 Ry
     Harris-Foulkes estimate   =   -1134.61215487 Ry
     estimated scf accuracy    <       0.05496304 Ry

     iteration # 92     ecut=    25.00 Ry     beta= 0.10
     Davidson diagonalization with overlap
     ethr =  2.05E-05,  avg # of iterations =  3.4

     negative rho (up, down):  8.627E+00 0.000E+00

     total cpu time spent up to now is      351.2 secs

     total energy              =   -1134.60448362 Ry
     Harris-Foulkes estimate   =   -1134.60435609 Ry
     estimated scf accuracy    <       0.02689367 Ry

     iteration # 93     ecut=    25.00 Ry     beta= 0.10
     Davidson diagonalization with overlap
     ethr =  2.05E-05,  avg # of iterations =  3.0

     negative rho (up, down):  8.664E+00 0.000E+00

     total cpu time spent up to now is      354.8 secs

     total energy              =   -1134.59068453 Ry
     Harris-Foulkes estimate   =   -1134.60781920 Ry
     estimated scf accuracy    <       0.05807750 Ry

     iteration # 94     ecut=    25.00 Ry     beta= 0.10
     Davidson diagonalization with overlap
     ethr =  2.05E-05,  avg # of iterations =  3.0

     negative rho (up, down):  8.639E+00 0.000E+00

     total cpu time spent up to now is      358.7 secs

     total energy              =   -1134.60397643 Ry
     Harris-Foulkes estimate   =   -1134.60873835 Ry
     estimated scf accuracy    <       0.09034710 Ry

     iteration # 95     ecut=    25.00 Ry     beta= 0.10
     Davidson diagonalization with overlap
     ethr =  2.05E-05,  avg # of iterations =  2.0

     negative rho (up, down):  8.608E+00 0.000E+00

     total cpu time spent up to now is      362.3 secs

     total energy              =   -1134.59743661 Ry
     Harris-Foulkes estimate   =   -1134.60543451 Ry
     estimated scf accuracy    <       0.07582917 Ry

     iteration # 96     ecut=    25.00 Ry     beta= 0.10
     Davidson diagonalization with overlap
     ethr =  2.05E-05,  avg # of iterations =  3.0

     negative rho (up, down):  8.606E+00 0.000E+00

     total cpu time spent up to now is      366.1 secs

     total energy              =   -1134.60843360 Ry
     Harris-Foulkes estimate   =   -1134.60690057 Ry
     estimated scf accuracy    <       0.02849054 Ry

     iteration # 97     ecut=    25.00 Ry     beta= 0.10
     Davidson diagonalization with overlap
     ethr =  2.05E-05,  avg # of iterations =  2.1

     negative rho (up, down):  8.601E+00 0.000E+00

     total cpu time spent up to now is      369.7 secs

     total energy              =   -1134.60745342 Ry
     Harris-Foulkes estimate   =   -1134.60957890 Ry
     estimated scf accuracy    <       0.04285240 Ry

     iteration # 98     ecut=    25.00 Ry     beta= 0.10
     Davidson diagonalization with overlap
     ethr =  2.05E-05,  avg # of iterations =  2.0

     negative rho (up, down):  8.587E+00 0.000E+00

     total cpu time spent up to now is      373.2 secs

     total energy              =   -1134.60524317 Ry
     Harris-Foulkes estimate   =   -1134.60838075 Ry
     estimated scf accuracy    <       0.03726925 Ry

     iteration # 99     ecut=    25.00 Ry     beta= 0.10
     Davidson diagonalization with overlap
     ethr =  2.05E-05,  avg # of iterations =  2.2

     negative rho (up, down):  8.601E+00 0.000E+00

     total cpu time spent up to now is      376.9 secs

     total energy              =   -1134.60617358 Ry
     Harris-Foulkes estimate   =   -1134.60686360 Ry
     estimated scf accuracy    <       0.03053283 Ry

     iteration #100     ecut=    25.00 Ry     beta= 0.10
     Davidson diagonalization with overlap
     ethr =  2.05E-05,  avg # of iterations =  2.0

     negative rho (up, down):  8.604E+00 0.000E+00

     total cpu time spent up to now is      380.4 secs

     total energy              =   -1134.60616709 Ry
     Harris-Foulkes estimate   =   -1134.60700736 Ry
     estimated scf accuracy    <       0.03319993 Ry

     End of self-consistent calculation

     convergence NOT achieved after 100 iterations: stopping

     Writing output data file xyWEoZqEMGoJLDJQ.save/

     init_run     :      3.52s CPU      3.54s WALL (       1 calls)
     electrons    :    376.19s CPU    376.60s WALL (       1 calls)

     Called by init_run:
     wfcinit      :      2.40s CPU      2.40s WALL (       1 calls)
     potinit      :      0.97s CPU      0.99s WALL (       1 calls)
     hinit0       :      0.12s CPU      0.12s WALL (       1 calls)

     Called by electrons:
     c_bands      :    246.44s CPU    246.78s WALL (     100 calls)
     sum_band     :     31.76s CPU     31.81s WALL (     100 calls)
     v_of_rho     :      0.81s CPU      0.81s WALL (     101 calls)
     newd         :      2.41s CPU      2.42s WALL (     101 calls)
     PAW_pot      :     95.52s CPU     95.54s WALL (     101 calls)
     mix_rho      :      0.19s CPU      0.19s WALL (     100 calls)

     Called by c_bands:
     init_us_2    :      1.45s CPU      1.46s WALL (    2814 calls)
     cegterg      :    242.04s CPU    242.35s WALL (    1400 calls)

     Called by sum_band:
     sum_band:bec :      0.53s CPU      0.53s WALL (    1400 calls)
     addusdens    :      0.99s CPU      1.00s WALL (     100 calls)

     Called by *egterg:
     h_psi        :    118.94s CPU    119.18s WALL (    4643 calls)
     s_psi        :     38.90s CPU     38.93s WALL (    4643 calls)
     g_psi        :      0.32s CPU      0.32s WALL (    3229 calls)
     cdiaghg      :     29.17s CPU     29.18s WALL (    4629 calls)

     Called by h_psi:
     h_psi:pot    :    118.65s CPU    118.89s WALL (    4643 calls)
     h_psi:calbec :     48.89s CPU     48.95s WALL (    4643 calls)
     vloc_psi     :     30.89s CPU     31.07s WALL (    4643 calls)
     add_vuspsi   :     38.85s CPU     38.86s WALL (    4643 calls)

     General routines
     calbec       :     71.00s CPU     71.07s WALL (    6043 calls)
     fft          :      0.30s CPU      0.30s WALL (    1313 calls)
     ffts         :      0.01s CPU      0.01s WALL (     201 calls)
     fftw         :     33.82s CPU     34.01s WALL (  453934 calls)
     interpolate  :      0.03s CPU      0.03s WALL (     101 calls)
     davcio       :      0.00s CPU      0.01s WALL (      36 calls)

     Parallel routines

     PWSCF        :   6m20.00s CPU   6m20.44s WALL


   This run was terminated on:  17:15:53  18Mar2020            

=------------------------------------------------------------------------------=
   JOB DONE.
=------------------------------------------------------------------------------=
