
     Program PWSCF v.6.4.1 starts on 18Mar2020 at 16:47: 3 

     This program is part of the open-source Quantum ESPRESSO suite
     for quantum simulation of materials; please cite
         "P. Giannozzi et al., J. Phys.:Condens. Matter 21 395502 (2009);
         "P. Giannozzi et al., J. Phys.:Condens. Matter 29 465901 (2017);
          URL http://www.quantum-espresso.org", 
     in publications or presentations arising from this work. More details at
     http://www.quantum-espresso.org/quote

     Parallel version (MPI), running on     1 processors

     MPI processes distributed on     1 nodes
     Reading input from wd/configs/1/config_0004.in
Warning: card &IONS ignored
Warning: card ION_DYNAMICS = 'BFGS', ignored
Warning: card / ignored
Warning: card &CELL ignored
Warning: card CELL_DYNAMICS = 'BFGS', ignored
Warning: card CELL_FACTOR = 2.0, ignored
Warning: card PRESS = 0.0, ignored
Warning: card / ignored

     Current dimensions of program PWSCF are:
     Max number of different atomic species (ntypx) = 10
     Max number of k-points (npk) =  40000
     Max angular momentum in pseudopotentials (lmaxx) =  3
               file Al.pbe-nl-kjpaw_psl.1.0.0.UPF: wavefunction(s)  3S 3P renormalized

     Subspace diagonalization in iterative solution of the eigenvalue problem:
     a serial algorithm will be used


     G-vector sticks info
     --------------------
     sticks:   dense  smooth     PW     G-vecs:    dense   smooth      PW
     Sum         553     437    145                 9771     6859    1309



     bravais-lattice index     =            0
     lattice parameter (alat)  =       7.3944  a.u.
     unit-cell volume          =     404.2981 (a.u.)^3
     number of atoms/cell      =           29
     number of atomic types    =            1
     number of electrons       =        87.00
     number of Kohn-Sham states=           53
     kinetic-energy cutoff     =      25.0000  Ry
     charge density cutoff     =     126.0000  Ry
     convergence threshold     =      1.0E-06
     mixing beta               =       0.1000
     number of iterations used =           10  TF        mixing
     Exchange-correlation      = SLA PW PBX PBC ( 1  4  3  4 0 0)

     celldm(1)=   7.394360  celldm(2)=   0.000000  celldm(3)=   0.000000
     celldm(4)=   0.000000  celldm(5)=   0.000000  celldm(6)=   0.000000

     crystal axes: (cart. coord. in units of alat)
               a(1) = (   1.000000   0.000000   0.000000 )  
               a(2) = (   0.000000   1.000000   0.000000 )  
               a(3) = (   0.000000   0.000000   1.000000 )  

     reciprocal axes: (cart. coord. in units 2 pi/alat)
               b(1) = (  1.000000  0.000000  0.000000 )  
               b(2) = (  0.000000  1.000000  0.000000 )  
               b(3) = (  0.000000  0.000000  1.000000 )  


     PseudoPot. # 1 for Al read from file:
     /opt/pp/Al.pbe-nl-kjpaw_psl.1.0.0.UPF
     MD5 check sum: 1b67f78b73fe58c7924490f171ce8a1e
     Pseudo is Projector augmented-wave + core cor, Zval =  3.0
     Generated using "atomic" code by A. Dal Corso v.6.3
     Shape of augmentation charge: PSQ
     Using radial grid of 1135 points,  4 beta functions with: 
                l(1) =   0
                l(2) =   0
                l(3) =   1
                l(4) =   1
     Q(r) pseudized with 0 coefficients 


     atomic species   valence    mass     pseudopotential
        Al             3.00    26.98200     Al( 1.00)

     No symmetry found



   Cartesian axes

     site n.     atom                  positions (alat units)
         1           Al  tau(   1) = (  -0.0014874  -0.0013131  -0.0010714  )
         2           Al  tau(   2) = (   0.2489764   0.2478629  -0.0010619  )
         3           Al  tau(   3) = (  -0.0017360   0.2487736   0.2498681  )
         4           Al  tau(   4) = (  -0.0014350  -0.0004490   0.4994063  )
         5           Al  tau(   5) = (   0.2497042   0.2496890   0.4981560  )
         6           Al  tau(   6) = (   0.2491409  -0.0020439   0.7486624  )
         7           Al  tau(   7) = (  -0.0012376   0.2492832   0.7481851  )
         8           Al  tau(   8) = (  -0.0011255   0.4991170  -0.0004845  )
         9           Al  tau(   9) = (   0.2496284   0.7490929  -0.0014161  )
        10           Al  tau(  10) = (   0.2492242   0.4993755   0.2503220  )
        11           Al  tau(  11) = (  -0.0005713   0.7490972   0.2496846  )
        12           Al  tau(  12) = (  -0.0011940   0.4988357   0.4987523  )
        13           Al  tau(  13) = (   0.2491026   0.4992927   0.7490566  )
        14           Al  tau(  14) = (  -0.0015009   0.7489088   0.7481133  )
        15           Al  tau(  15) = (   0.5000378  -0.0022224  -0.0026080  )
        16           Al  tau(  16) = (   0.7472928   0.2474313  -0.0013807  )
        17           Al  tau(  17) = (   0.7494889  -0.0017671   0.2484877  )
        18           Al  tau(  18) = (   0.4982855   0.2490362   0.2476846  )
        19           Al  tau(  19) = (   0.4971416  -0.0017485   0.4989662  )
        20           Al  tau(  20) = (   0.7485450   0.2484880   0.4979525  )
        21           Al  tau(  21) = (   0.7483218  -0.0001425   0.7485344  )
        22           Al  tau(  22) = (   0.4989300   0.2473913   0.7484505  )
        23           Al  tau(  23) = (   0.4987952   0.4983641  -0.0012464  )
        24           Al  tau(  24) = (   0.7486947   0.7481784  -0.0013737  )
        25           Al  tau(  25) = (   0.7480387   0.4991251   0.2477421  )
        26           Al  tau(  26) = (   0.4977072   0.7490517   0.2497779  )
        27           Al  tau(  27) = (   0.4990635   0.4978289   0.4984253  )
        28           Al  tau(  28) = (   0.7490101   0.4977835   0.7495119  )
        29           Al  tau(  29) = (   0.4973098   0.7490718   0.7488145  )

     number of k points=    14  Marzari-Vanderbilt smearing, width (Ry)=  0.0200
                       cart. coord. in units 2pi/alat
        k(    1) = (   0.1666667   0.1666667   0.1666667), wk =   0.1481481
        k(    2) = (   0.1666667   0.1666667  -0.5000000), wk =   0.1481481
        k(    3) = (   0.1666667  -0.5000000  -0.5000000), wk =   0.1481481
        k(    4) = (  -0.5000000  -0.5000000  -0.5000000), wk =   0.0740741
        k(    5) = (  -0.1666667  -0.1666667   0.1666667), wk =   0.1481481
        k(    6) = (  -0.1666667   0.1666667  -0.1666667), wk =   0.1481481
        k(    7) = (   0.1666667  -0.1666667  -0.1666667), wk =   0.1481481
        k(    8) = (  -0.1666667   0.1666667   0.5000000), wk =   0.1481481
        k(    9) = (  -0.5000000  -0.1666667   0.1666667), wk =   0.1481481
        k(   10) = (   0.5000000  -0.1666667  -0.1666667), wk =   0.1481481
        k(   11) = (  -0.1666667  -0.5000000   0.1666667), wk =   0.1481481
        k(   12) = (  -0.1666667   0.5000000  -0.1666667), wk =   0.1481481
        k(   13) = (  -0.5000000   0.1666667   0.5000000), wk =   0.1481481
        k(   14) = (  -0.5000000   0.5000000   0.1666667), wk =   0.1481481

     Dense  grid:     9771 G-vectors     FFT dimensions: (  27,  27,  27)

     Smooth grid:     6859 G-vectors     FFT dimensions: (  24,  24,  24)

     Estimated max dynamical RAM per process >      38.84 MB

     Initial potential from superposition of free atoms

     starting charge   86.93358, renormalised to   87.00000
     Starting wfcs are  116 randomized atomic wfcs
     Checking if some PAW data can be deallocated... 

     total cpu time spent up to now is        3.0 secs

     Self-consistent Calculation

     iteration #  1     ecut=    25.00 Ry     beta= 0.10
     Davidson diagonalization with overlap
     ethr =  1.00E-02,  avg # of iterations =  5.4

     total cpu time spent up to now is        8.8 secs

     total energy              =    -984.67968297 Ry
     Harris-Foulkes estimate   =    -987.63939016 Ry
     estimated scf accuracy    <      29.62999542 Ry

     iteration #  2     ecut=    25.00 Ry     beta= 0.10
     Davidson diagonalization with overlap
     ethr =  1.00E-02,  avg # of iterations =  1.0

     total cpu time spent up to now is       11.5 secs

     total energy              =    -972.77509314 Ry
     Harris-Foulkes estimate   =    -984.79377610 Ry
     estimated scf accuracy    <      23.18453132 Ry

     iteration #  3     ecut=    25.00 Ry     beta= 0.10
     Davidson diagonalization with overlap
     ethr =  1.00E-02,  avg # of iterations =  3.8

     total cpu time spent up to now is       15.9 secs

     total energy              =    -977.72925561 Ry
     Harris-Foulkes estimate   =    -977.92554942 Ry
     estimated scf accuracy    <       3.20235125 Ry

     iteration #  4     ecut=    25.00 Ry     beta= 0.10
     Davidson diagonalization with overlap
     ethr =  3.68E-03,  avg # of iterations =  2.1

     total cpu time spent up to now is       18.9 secs

     total energy              =    -977.82890089 Ry
     Harris-Foulkes estimate   =    -978.23758669 Ry
     estimated scf accuracy    <       1.26536368 Ry

     iteration #  5     ecut=    25.00 Ry     beta= 0.10
     Davidson diagonalization with overlap
     ethr =  1.45E-03,  avg # of iterations =  3.1

     total cpu time spent up to now is       22.0 secs

     total energy              =    -977.28922867 Ry
     Harris-Foulkes estimate   =    -978.00781925 Ry
     estimated scf accuracy    <       1.47042618 Ry

     iteration #  6     ecut=    25.00 Ry     beta= 0.10
     Davidson diagonalization with overlap
     ethr =  1.45E-03,  avg # of iterations =  2.2

     total cpu time spent up to now is       24.8 secs

     total energy              =    -977.45421070 Ry
     Harris-Foulkes estimate   =    -977.44821873 Ry
     estimated scf accuracy    <       0.25102004 Ry

     iteration #  7     ecut=    25.00 Ry     beta= 0.10
     Davidson diagonalization with overlap
     ethr =  2.89E-04,  avg # of iterations =  4.8

     total cpu time spent up to now is       29.9 secs

     total energy              =    -977.46836160 Ry
     Harris-Foulkes estimate   =    -977.59369104 Ry
     estimated scf accuracy    <       0.33835296 Ry

     iteration #  8     ecut=    25.00 Ry     beta= 0.10
     Davidson diagonalization with overlap
     ethr =  2.89E-04,  avg # of iterations =  2.1

     total cpu time spent up to now is       32.7 secs

     total energy              =    -977.49681085 Ry
     Harris-Foulkes estimate   =    -977.49735187 Ry
     estimated scf accuracy    <       0.03942245 Ry

     iteration #  9     ecut=    25.00 Ry     beta= 0.10
     Davidson diagonalization with overlap
     ethr =  4.53E-05,  avg # of iterations =  4.4

     total cpu time spent up to now is       37.6 secs

     total energy              =    -977.51369383 Ry
     Harris-Foulkes estimate   =    -977.51282464 Ry
     estimated scf accuracy    <       0.02004988 Ry

     iteration # 10     ecut=    25.00 Ry     beta= 0.10
     Davidson diagonalization with overlap
     ethr =  2.30E-05,  avg # of iterations =  1.0

     total cpu time spent up to now is       40.3 secs

     total energy              =    -977.51011594 Ry
     Harris-Foulkes estimate   =    -977.51385848 Ry
     estimated scf accuracy    <       0.02052854 Ry

     iteration # 11     ecut=    25.00 Ry     beta= 0.10
     Davidson diagonalization with overlap
     ethr =  2.30E-05,  avg # of iterations =  1.6

     total cpu time spent up to now is       42.9 secs

     total energy              =    -977.51175337 Ry
     Harris-Foulkes estimate   =    -977.51170766 Ry
     estimated scf accuracy    <       0.00449864 Ry

     iteration # 12     ecut=    25.00 Ry     beta= 0.10
     Davidson diagonalization with overlap
     ethr =  5.17E-06,  avg # of iterations =  2.1

     total cpu time spent up to now is       45.7 secs

     total energy              =    -977.51163800 Ry
     Harris-Foulkes estimate   =    -977.51193341 Ry
     estimated scf accuracy    <       0.00433095 Ry

     iteration # 13     ecut=    25.00 Ry     beta= 0.10
     Davidson diagonalization with overlap
     ethr =  4.98E-06,  avg # of iterations =  1.0

     total cpu time spent up to now is       48.3 secs

     total energy              =    -977.51064030 Ry
     Harris-Foulkes estimate   =    -977.51170679 Ry
     estimated scf accuracy    <       0.00352238 Ry

     iteration # 14     ecut=    25.00 Ry     beta= 0.10
     Davidson diagonalization with overlap
     ethr =  4.05E-06,  avg # of iterations =  3.1

     total cpu time spent up to now is       51.3 secs

     total energy              =    -977.51029276 Ry
     Harris-Foulkes estimate   =    -977.51106421 Ry
     estimated scf accuracy    <       0.00242304 Ry

     iteration # 15     ecut=    25.00 Ry     beta= 0.10
     Davidson diagonalization with overlap
     ethr =  2.79E-06,  avg # of iterations =  2.2

     total cpu time spent up to now is       54.1 secs

     total energy              =    -977.51062927 Ry
     Harris-Foulkes estimate   =    -977.51064332 Ry
     estimated scf accuracy    <       0.00043874 Ry

     iteration # 16     ecut=    25.00 Ry     beta= 0.10
     Davidson diagonalization with overlap
     ethr =  5.04E-07,  avg # of iterations =  3.8

     total cpu time spent up to now is       57.5 secs

     total energy              =    -977.51067890 Ry
     Harris-Foulkes estimate   =    -977.51069740 Ry
     estimated scf accuracy    <       0.00057319 Ry

     iteration # 17     ecut=    25.00 Ry     beta= 0.10
     Davidson diagonalization with overlap
     ethr =  5.04E-07,  avg # of iterations =  1.0

     total cpu time spent up to now is       60.2 secs

     total energy              =    -977.51061753 Ry
     Harris-Foulkes estimate   =    -977.51068597 Ry
     estimated scf accuracy    <       0.00048012 Ry

     iteration # 18     ecut=    25.00 Ry     beta= 0.10
     Davidson diagonalization with overlap
     ethr =  5.04E-07,  avg # of iterations =  1.0

     total cpu time spent up to now is       62.8 secs

     total energy              =    -977.51062474 Ry
     Harris-Foulkes estimate   =    -977.51063390 Ry
     estimated scf accuracy    <       0.00016174 Ry

     iteration # 19     ecut=    25.00 Ry     beta= 0.10
     Davidson diagonalization with overlap
     ethr =  1.86E-07,  avg # of iterations =  1.0

     total cpu time spent up to now is       65.5 secs

     total energy              =    -977.51062389 Ry
     Harris-Foulkes estimate   =    -977.51062769 Ry
     estimated scf accuracy    <       0.00014011 Ry

     iteration # 20     ecut=    25.00 Ry     beta= 0.10
     Davidson diagonalization with overlap
     ethr =  1.61E-07,  avg # of iterations =  1.0

     total cpu time spent up to now is       68.1 secs

     total energy              =    -977.51062172 Ry
     Harris-Foulkes estimate   =    -977.51062530 Ry
     estimated scf accuracy    <       0.00011890 Ry

     iteration # 21     ecut=    25.00 Ry     beta= 0.10
     Davidson diagonalization with overlap
     ethr =  1.37E-07,  avg # of iterations =  1.0

     total cpu time spent up to now is       70.6 secs

     total energy              =    -977.51062095 Ry
     Harris-Foulkes estimate   =    -977.51062282 Ry
     estimated scf accuracy    <       0.00007929 Ry

     iteration # 22     ecut=    25.00 Ry     beta= 0.10
     Davidson diagonalization with overlap
     ethr =  9.11E-08,  avg # of iterations =  1.0

     total cpu time spent up to now is       73.3 secs

     total energy              =    -977.51061419 Ry
     Harris-Foulkes estimate   =    -977.51062216 Ry
     estimated scf accuracy    <       0.00003750 Ry

     iteration # 23     ecut=    25.00 Ry     beta= 0.10
     Davidson diagonalization with overlap
     ethr =  4.31E-08,  avg # of iterations =  4.4

     total cpu time spent up to now is       76.6 secs

     total energy              =    -977.51061940 Ry
     Harris-Foulkes estimate   =    -977.51062167 Ry
     estimated scf accuracy    <       0.00001098 Ry

     iteration # 24     ecut=    25.00 Ry     beta= 0.10
     Davidson diagonalization with overlap
     ethr =  1.26E-08,  avg # of iterations =  2.1

     total cpu time spent up to now is       79.4 secs

     total energy              =    -977.51062047 Ry
     Harris-Foulkes estimate   =    -977.51062060 Ry
     estimated scf accuracy    <       0.00000193 Ry

     iteration # 25     ecut=    25.00 Ry     beta= 0.10
     Davidson diagonalization with overlap
     ethr =  2.22E-09,  avg # of iterations =  3.3

     total cpu time spent up to now is       82.6 secs

     total energy              =    -977.51061963 Ry
     Harris-Foulkes estimate   =    -977.51062070 Ry
     estimated scf accuracy    <       0.00000145 Ry

     iteration # 26     ecut=    25.00 Ry     beta= 0.10
     Davidson diagonalization with overlap
     ethr =  1.67E-09,  avg # of iterations =  2.1

     total cpu time spent up to now is       85.4 secs

     End of self-consistent calculation

          k = 0.1667 0.1667 0.1667 (   832 PWs)   bands (ev):

    38.7339  41.3194  43.6629  45.1529  46.4164  47.2923  47.7087  47.9414
    48.4000  48.8674  49.6123  50.2717  50.6968  50.7852  50.9662  51.5179
    51.7673  52.1072  52.3506  52.5685  52.8324  53.1703  53.3677  53.5528
    53.6913  54.4291  54.7908  55.0791  55.3434  55.5817  56.5917  56.8975
    57.7385  57.9245  58.4228  59.4663  59.5673  59.6365  60.1264  61.2555
    61.7142  61.9205  62.1713  62.3130  62.5543  62.7830  63.0496  63.2673
    63.4218  63.7588  63.9200  64.2245  64.3524

          k = 0.1667 0.1667-0.5000 (   852 PWs)   bands (ev):

    39.2568  41.3443  43.2880  45.6131  47.0410  47.9414  48.2456  48.5339
    48.6535  49.0950  49.2535  49.6156  50.0245  50.2332  50.8013  51.3372
    51.7395  52.1466  52.2439  52.4695  52.6918  52.9421  53.2941  53.5476
    53.7950  54.0580  54.4938  55.1696  55.5724  56.0497  57.0491  57.6013
    58.0153  58.5029  59.3074  59.3951  59.6836  59.7496  60.0914  60.2589
    60.7202  60.8238  61.0336  61.2926  61.5459  61.7727  61.8284  62.3306
    62.5410  62.8805  63.3450  63.6319  63.9017

          k = 0.1667-0.5000-0.5000 (   860 PWs)   bands (ev):

    39.5995  41.4232  43.4777  46.2377  46.3388  47.8596  48.9925  49.4715
    49.5068  49.7843  49.8050  49.9531  49.9890  50.0321  50.5570  50.5843
    51.0187  51.1512  51.3436  51.8310  52.0260  53.7768  53.8037  53.8280
    54.1400  54.4475  54.6328  54.9138  55.0235  56.5692  56.8291  57.7548
    58.2967  58.4709  58.6252  58.9671  59.2556  59.9225  59.9913  60.0865
    60.1618  60.4351  60.8573  60.8707  60.9660  60.9857  61.3044  61.7968
    61.9887  62.8577  62.9517  63.1890  64.2782

          k =-0.5000-0.5000-0.5000 (   840 PWs)   bands (ev):

    40.3810  40.7207  43.2419  47.5807  47.6685  47.7396  47.7751  47.8322
    49.8726  50.4302  50.8108  51.3375  51.3618  51.4050  51.4498  51.5500
    51.5719  51.5857  51.5898  51.6544  51.7349  51.9451  52.0942  52.3534
    52.4054  52.6430  54.4262  55.5357  56.2830  56.5413  56.6909  58.3153
    58.4225  58.4619  59.4113  59.4630  59.5260  59.6157  59.8009  59.8147
    59.9005  59.9343  59.9676  59.9985  60.1983  60.2664  60.3191  60.8336
    62.2830  62.9114  62.9996  63.0575  63.4729

          k =-0.1667-0.1667 0.1667 (   832 PWs)   bands (ev):

    38.7521  41.3107  43.4544  45.4225  46.4914  47.1576  47.6725  48.0054
    48.1147  49.2806  49.4615  50.3459  50.7638  50.8341  51.1209  51.1803
    51.7653  52.1688  52.1932  52.7147  52.8831  52.9436  53.3010  53.6421
    53.7950  54.4848  54.5844  55.0386  55.4459  55.6306  56.8860  57.0265
    57.6869  58.0142  58.1454  59.4520  59.6515  59.9307  60.0260  61.2520
    61.7269  61.8619  61.9258  62.1115  62.5485  62.5705  62.9601  63.1627
    63.3191  63.7495  63.8554  63.9820  64.2801

          k =-0.1667 0.1667-0.1667 (   832 PWs)   bands (ev):

    38.7523  41.3086  43.4599  45.4160  46.4910  47.1586  47.6755  48.0064
    48.1088  49.2828  49.4590  50.3419  50.7725  50.8359  51.1489  51.1767
    51.7539  52.1311  52.1863  52.7115  52.8892  52.9525  53.3481  53.6321
    53.7937  54.4853  54.5908  55.0222  55.4376  55.6317  56.8859  57.0236
    57.6824  58.0190  58.1275  59.4504  59.6583  59.9336  60.0325  61.2567
    61.7295  61.8548  61.9232  62.1079  62.5544  62.5786  62.9706  63.1685
    63.3129  63.7590  63.8669  63.9610  64.2827

          k = 0.1667-0.1667-0.1667 (   832 PWs)   bands (ev):

    38.7336  41.3202  43.6612  45.1541  46.4171  47.2981  47.6905  47.9468
    48.4163  48.8663  49.6139  50.2705  50.6910  50.7852  50.9616  51.5351
    51.7604  52.0590  52.3734  52.5704  52.8367  53.1420  53.4174  53.5299
    53.6897  54.4344  54.7950  55.0949  55.3437  55.5585  56.6234  56.8817
    57.7479  57.9490  58.4072  59.4629  59.5573  59.6293  60.1251  61.2325
    61.6874  61.9267  62.1851  62.3191  62.5649  62.7986  63.0415  63.3011
    63.4500  63.7502  63.8994  64.2027  64.3266

          k =-0.1667 0.1667 0.5000 (   852 PWs)   bands (ev):

    39.2567  41.3440  43.2889  45.6120  47.0392  47.9382  48.2376  48.5325
    48.6875  49.0914  49.2407  49.6177  50.0209  50.2274  50.8068  51.3266
    51.7502  52.1470  52.2422  52.4709  52.6886  52.9365  53.2782  53.5667
    53.8081  54.0512  54.4996  55.1698  55.5949  56.0215  57.0445  57.6041
    58.0000  58.4811  59.3159  59.4254  59.6766  59.7691  60.0628  60.2689
    60.7279  60.8473  61.0318  61.2715  61.5733  61.7671  61.8088  62.3237
    62.5510  62.9019  63.3212  63.6120  63.9060

          k =-0.5000-0.1667 0.1667 (   852 PWs)   bands (ev):

    39.8085  40.3222  43.4629  46.0669  46.9884  48.1523  48.4472  48.6649
    48.7685  48.7852  49.4027  49.5949  49.9793  50.3024  50.9014  51.3382
    51.3757  51.4313  52.3105  52.5100  52.6042  53.1949  53.3006  53.8058
    54.1754  54.4644  54.8991  55.2393  56.0791  56.2208  56.6628  56.9962
    57.8377  57.9361  59.1599  59.3284  59.5233  59.9057  60.2967  60.3895
    60.5549  60.6440  60.9370  61.0489  61.3885  61.5824  61.9386  62.0023
    62.4134  63.0265  63.0868  63.1694  64.5376

          k = 0.5000-0.1667-0.1667 (   852 PWs)   bands (ev):

    39.7783  40.3219  43.6613  46.0668  46.6651  48.1449  48.4065  48.7064
    48.7715  48.9361  49.4695  49.7880  49.8076  50.1286  51.0136  51.0893
    51.4206  51.4459  52.3821  52.5464  52.6285  53.0966  53.7485  53.8449
    53.9481  54.3689  54.9614  55.1982  55.8992  56.2587  56.6610  56.9223
    57.6947  57.8887  59.0985  59.3767  59.5375  59.6352  60.1095  60.3932
    60.6451  60.8577  61.0220  61.1530  61.6562  61.7012  61.9006  62.3180
    62.3922  62.8452  63.4787  63.9383  64.1912

          k =-0.1667-0.5000 0.1667 (   852 PWs)   bands (ev):

    39.2562  41.3457  43.2880  45.6159  47.0409  47.9370  48.2534  48.5294
    48.6640  49.0622  49.2696  49.6096  50.0308  50.2555  50.7725  51.3265
    51.7351  52.1504  52.2404  52.4818  52.6777  52.9517  53.2633  53.5702
    53.8034  54.0837  54.4940  55.1763  55.5782  56.0326  57.0474  57.6062
    57.9953  58.4972  59.3095  59.4354  59.6487  59.7752  60.0896  60.2953
    60.7130  60.8248  61.0434  61.2916  61.5387  61.7731  61.8076  62.3369
    62.5098  62.8774  63.3695  63.6060  63.8903

          k =-0.1667 0.5000-0.1667 (   852 PWs)   bands (ev):

    39.2565  41.3448  43.2897  45.6138  47.0412  47.9350  48.2397  48.5406
    48.6977  49.0684  49.2345  49.5950  50.0380  50.2244  50.7996  51.3308
    51.7615  52.1424  52.2612  52.4652  52.6727  52.9658  53.2974  53.5436
    53.7943  54.0574  54.4895  55.1786  55.5720  56.0223  57.0785  57.6152
    58.0003  58.4938  59.3186  59.4133  59.6514  59.7610  60.0703  60.2701
    60.7208  60.8024  61.0430  61.3098  61.5484  61.7845  61.8276  62.3257
    62.5202  62.9104  63.3470  63.6168  63.8956

          k =-0.5000 0.1667 0.5000 (   860 PWs)   bands (ev):

    40.1703  40.5726  43.1915  46.3039  47.2053  48.0104  48.6655  49.6177
    49.7250  49.7565  49.8181  49.9135  50.0451  50.4008  50.5600  50.8716
    50.9191  51.1059  51.2409  51.6976  51.9125  53.3688  53.7121  54.0091
    54.0700  54.1755  54.3703  55.3582  56.1743  56.6832  57.3966  57.7181
    57.8056  58.3475  58.6001  58.8870  59.0530  59.1308  59.3165  59.3510
    59.7757  60.3092  60.8156  60.8514  61.1070  61.2178  61.6041  61.7838
    62.2395  63.2029  63.3304  63.8150  63.8744

          k =-0.5000 0.5000 0.1667 (   860 PWs)   bands (ev):

    40.1710  40.5719  43.1902  46.3202  47.2043  47.9922  48.6696  49.6030
    49.7283  49.7551  49.8311  49.9077  50.0706  50.3890  50.5458  50.8476
    50.9447  51.0931  51.2282  51.7104  51.9226  53.3566  53.7131  54.0116
    54.0676  54.1879  54.3721  55.3605  56.1711  56.6904  57.3968  57.7556
    57.7836  58.3300  58.6213  58.8735  59.0371  59.1357  59.3078  59.3540
    59.7885  60.3191  60.8272  60.8583  61.0981  61.2290  61.5978  61.7654
    62.2479  63.2144  63.3218  63.8211  63.8690

     the Fermi energy is    61.4069 ev

!    total energy              =    -977.51061989 Ry
     Harris-Foulkes estimate   =    -977.51061981 Ry
     estimated scf accuracy    <       0.00000014 Ry

     total all-electron energy =    -13915.651255 Ry

     The total energy is the sum of the following terms:

     one-electron contribution =     484.14252626 Ry
     hartree contribution      =       6.09824129 Ry
     xc contribution           =    -133.06131432 Ry
     ewald contribution        =    -301.54740268 Ry
     one-center paw contrib.   =   -1033.14575401 Ry
     smearing contrib. (-TS)   =       0.00308357 Ry

     convergence has been achieved in  26 iterations

     Forces acting on atoms (cartesian axes, Ry/au):

     atom    1 type  1   force =     1.18570703   -0.01653833    1.13312200
     atom    2 type  1   force =    -0.03686015   -1.20085054    1.22054928
     atom    3 type  1   force =     1.17614495   -1.11984730   -0.01518689
     atom    4 type  1   force =     1.13658711   -2.32726615   -1.14570148
     atom    5 type  1   force =    -0.00145653   -1.33817871   -1.15248393
     atom    6 type  1   force =    -0.07918313   -1.15826168   -1.33523838
     atom    7 type  1   force =     0.05839680   -0.01211387    0.02303849
     atom    8 type  1   force =     0.04071539   -0.02337235    0.04683519
     atom    9 type  1   force =    -0.03299472    1.16393422    1.36808028
     atom   10 type  1   force =    -0.03205383    1.36044951    1.15149348
     atom   11 type  1   force =     1.12878777    1.16243413    2.32488880
     atom   12 type  1   force =    -0.03432376    2.34615317   -0.02742903
     atom   13 type  1   force =    -0.00615888    1.21460195   -1.21532018
     atom   14 type  1   force =    -0.03325887    0.03035075   -2.33213278
     atom   15 type  1   force =    -1.15115041   -0.04829606    1.21529918
     atom   16 type  1   force =     0.04319962    0.00130503    0.05627435
     atom   17 type  1   force =    -0.02700173   -1.23627031    1.23247460
     atom   18 type  1   force =    -1.16357576   -1.22186399    0.01801063
     atom   19 type  1   force =    -1.11119335   -2.32619440   -1.23126290
     atom   20 type  1   force =    -0.04633934   -0.06083979   -0.04159859
     atom   21 type  1   force =     0.04892983   -1.22986580   -1.27700798
     atom   22 type  1   force =    -0.04563594    0.02504826   -0.02532352
     atom   23 type  1   force =    -0.02322246    0.01586060    0.00144105
     atom   24 type  1   force =     0.00259925   -0.00541483    0.05268309
     atom   25 type  1   force =     0.02305869    1.26551504    1.17248740
     atom   26 type  1   force =    -1.11906348    1.20069985    2.33246419
     atom   27 type  1   force =     0.06845949    2.34550375    0.02370514
     atom   28 type  1   force =    -0.01675211    1.22239835   -1.19224216
     atom   29 type  1   force =     0.04763850   -0.02908051   -2.38191935

     Total force =     9.803689     Total SCF correction =     0.000386


     Computing stress (Cartesian axis) and pressure

          total   stress  (Ry/bohr**3)                   (kbar)     P=87573.75
   0.59148359  -0.00004286  -0.00006371      87010.23     -6.30     -9.37
  -0.00004286   0.59713646  -0.00558654         -6.30  87841.79   -821.81
  -0.00006371  -0.00558654   0.59732292         -9.37   -821.81  87869.22


     Writing output data file icjIdaMamKvSicpe.save/

     init_run     :      2.63s CPU      2.67s WALL (       1 calls)
     electrons    :     82.35s CPU     82.44s WALL (       1 calls)
     forces       :      0.75s CPU      0.75s WALL (       1 calls)
     stress       :      0.81s CPU      0.81s WALL (       1 calls)

     Called by init_run:
     wfcinit      :      1.67s CPU      1.67s WALL (       1 calls)
     potinit      :      0.83s CPU      0.86s WALL (       1 calls)
     hinit0       :      0.11s CPU      0.11s WALL (       1 calls)

     Called by electrons:
     c_bands      :     52.93s CPU     53.01s WALL (      26 calls)
     sum_band     :      6.12s CPU      6.13s WALL (      26 calls)
     v_of_rho     :      0.22s CPU      0.22s WALL (      27 calls)
     newd         :      0.53s CPU      0.53s WALL (      27 calls)
     PAW_pot      :     23.34s CPU     23.37s WALL (      27 calls)
     mix_rho      :      0.04s CPU      0.04s WALL (      26 calls)

     Called by c_bands:
     init_us_2    :      0.34s CPU      0.35s WALL (     770 calls)
     cegterg      :     51.98s CPU     52.06s WALL (     364 calls)

     Called by sum_band:
     sum_band:bec :      0.06s CPU      0.06s WALL (     364 calls)
     addusdens    :      0.22s CPU      0.22s WALL (      26 calls)

     Called by *egterg:
     h_psi        :     25.70s CPU     25.75s WALL (    1237 calls)
     s_psi        :      7.90s CPU      7.91s WALL (    1237 calls)
     g_psi        :      0.07s CPU      0.07s WALL (     859 calls)
     cdiaghg      :      7.05s CPU      7.05s WALL (    1223 calls)

     Called by h_psi:
     h_psi:pot    :     25.63s CPU     25.68s WALL (    1237 calls)
     h_psi:calbec :      9.92s CPU      9.94s WALL (    1237 calls)
     vloc_psi     :      7.78s CPU      7.82s WALL (    1237 calls)
     add_vuspsi   :      7.92s CPU      7.92s WALL (    1237 calls)

     General routines
     calbec       :     14.71s CPU     14.74s WALL (    1671 calls)
     fft          :      0.09s CPU      0.09s WALL (     374 calls)
     ffts         :      0.01s CPU      0.01s WALL (      53 calls)
     fftw         :      8.41s CPU      8.45s WALL (  113904 calls)
     interpolate  :      0.01s CPU      0.01s WALL (      27 calls)

     Parallel routines

     PWSCF        :   1m26.83s CPU   1m26.98s WALL


   This run was terminated on:  16:48:30  18Mar2020            

=------------------------------------------------------------------------------=
   JOB DONE.
=------------------------------------------------------------------------------=
