
     Program PWSCF v.6.4.1 starts on 18Mar2020 at 16:48:31 

     This program is part of the open-source Quantum ESPRESSO suite
     for quantum simulation of materials; please cite
         "P. Giannozzi et al., J. Phys.:Condens. Matter 21 395502 (2009);
         "P. Giannozzi et al., J. Phys.:Condens. Matter 29 465901 (2017);
          URL http://www.quantum-espresso.org", 
     in publications or presentations arising from this work. More details at
     http://www.quantum-espresso.org/quote

     Parallel version (MPI), running on     1 processors

     MPI processes distributed on     1 nodes
     Reading input from wd/configs/1/config_0005.in
Warning: card &IONS ignored
Warning: card ION_DYNAMICS = 'BFGS', ignored
Warning: card / ignored
Warning: card &CELL ignored
Warning: card CELL_DYNAMICS = 'BFGS', ignored
Warning: card CELL_FACTOR = 2.0, ignored
Warning: card PRESS = 0.0, ignored
Warning: card / ignored

     Current dimensions of program PWSCF are:
     Max number of different atomic species (ntypx) = 10
     Max number of k-points (npk) =  40000
     Max angular momentum in pseudopotentials (lmaxx) =  3
               file Al.pbe-nl-kjpaw_psl.1.0.0.UPF: wavefunction(s)  3S 3P renormalized

     Subspace diagonalization in iterative solution of the eigenvalue problem:
     a serial algorithm will be used


     G-vector sticks info
     --------------------
     sticks:   dense  smooth     PW     G-vecs:    dense   smooth      PW
     Sum         553     437    145                 9771     6859    1309



     bravais-lattice index     =            0
     lattice parameter (alat)  =       7.3864  a.u.
     unit-cell volume          =     402.9956 (a.u.)^3
     number of atoms/cell      =           29
     number of atomic types    =            1
     number of electrons       =        87.00
     number of Kohn-Sham states=           53
     kinetic-energy cutoff     =      25.0000  Ry
     charge density cutoff     =     126.0000  Ry
     convergence threshold     =      1.0E-06
     mixing beta               =       0.1000
     number of iterations used =           10  TF        mixing
     Exchange-correlation      = SLA PW PBX PBC ( 1  4  3  4 0 0)

     celldm(1)=   7.386410  celldm(2)=   0.000000  celldm(3)=   0.000000
     celldm(4)=   0.000000  celldm(5)=   0.000000  celldm(6)=   0.000000

     crystal axes: (cart. coord. in units of alat)
               a(1) = (   1.000000   0.000000   0.000000 )  
               a(2) = (   0.000000   1.000000   0.000000 )  
               a(3) = (   0.000000   0.000000   1.000000 )  

     reciprocal axes: (cart. coord. in units 2 pi/alat)
               b(1) = (  1.000000  0.000000  0.000000 )  
               b(2) = (  0.000000  1.000000  0.000000 )  
               b(3) = (  0.000000  0.000000  1.000000 )  


     PseudoPot. # 1 for Al read from file:
     /opt/pp/Al.pbe-nl-kjpaw_psl.1.0.0.UPF
     MD5 check sum: 1b67f78b73fe58c7924490f171ce8a1e
     Pseudo is Projector augmented-wave + core cor, Zval =  3.0
     Generated using "atomic" code by A. Dal Corso v.6.3
     Shape of augmentation charge: PSQ
     Using radial grid of 1135 points,  4 beta functions with: 
                l(1) =   0
                l(2) =   0
                l(3) =   1
                l(4) =   1
     Q(r) pseudized with 0 coefficients 


     atomic species   valence    mass     pseudopotential
        Al             3.00    26.98200     Al( 1.00)

     No symmetry found



   Cartesian axes

     site n.     atom                  positions (alat units)
         1           Al  tau(   1) = (  -0.0014890  -0.0013145  -0.0010725  )
         2           Al  tau(   2) = (   0.2489753   0.2478606  -0.0010631  )
         3           Al  tau(   3) = (   0.2482622  -0.0012277   0.2498680  )
         4           Al  tau(   4) = (  -0.0014365   0.2495505   0.2494057  )
         5           Al  tau(   5) = (   0.2497039   0.2496887   0.4981540  )
         6           Al  tau(   6) = (   0.2491400  -0.0020461   0.7486610  )
         7           Al  tau(   7) = (  -0.0012389   0.4992825  -0.0018168  )
         8           Al  tau(   8) = (   0.2488732   0.7491160  -0.0004850  )
         9           Al  tau(   9) = (   0.2496280   0.4990919   0.2485823  )
        10           Al  tau(  10) = (  -0.0007766   0.7493748   0.2503223  )
        11           Al  tau(  11) = (  -0.0005719   0.4990962   0.4996842  )
        12           Al  tau(  12) = (   0.2488047   0.7488345   0.4987509  )
        13           Al  tau(  13) = (   0.2491016   0.4992919   0.7490556  )
        14           Al  tau(  14) = (  -0.0015026   0.7489077   0.7481113  )
        15           Al  tau(  15) = (   0.5000379  -0.0022248  -0.0026108  )
        16           Al  tau(  16) = (   0.7472899  -0.0025715   0.2486178  )
        17           Al  tau(  17) = (   0.4994884   0.2482310   0.2484860  )
        18           Al  tau(  18) = (   0.4982837  -0.0009648   0.4976821  )
        19           Al  tau(  19) = (   0.7471385   0.2482496   0.4989651  )
        20           Al  tau(  20) = (   0.7485434  -0.0015136   0.7479503  )
        21           Al  tau(  21) = (   0.4983200   0.2498574   0.7485328  )
        22           Al  tau(  22) = (   0.4989288   0.4973885  -0.0015512  )
        23           Al  tau(  23) = (   0.7487940   0.7483623  -0.0012477  )
        24           Al  tau(  24) = (   0.7486933   0.4981764   0.2486248  )
        25           Al  tau(  25) = (   0.4980366   0.7491242   0.2477396  )
        26           Al  tau(  26) = (   0.4977047   0.4990506   0.4997776  )
        27           Al  tau(  27) = (   0.7490625   0.7478266   0.4984236  )
        28           Al  tau(  28) = (   0.7490091   0.4977811   0.7495114  )
        29           Al  tau(  29) = (   0.4973069   0.7490708   0.7488132  )

     number of k points=    14  Marzari-Vanderbilt smearing, width (Ry)=  0.0200
                       cart. coord. in units 2pi/alat
        k(    1) = (   0.1666667   0.1666667   0.1666667), wk =   0.1481481
        k(    2) = (   0.1666667   0.1666667  -0.5000000), wk =   0.1481481
        k(    3) = (   0.1666667  -0.5000000  -0.5000000), wk =   0.1481481
        k(    4) = (  -0.5000000  -0.5000000  -0.5000000), wk =   0.0740741
        k(    5) = (  -0.1666667  -0.1666667   0.1666667), wk =   0.1481481
        k(    6) = (  -0.1666667   0.1666667  -0.1666667), wk =   0.1481481
        k(    7) = (   0.1666667  -0.1666667  -0.1666667), wk =   0.1481481
        k(    8) = (  -0.1666667   0.1666667   0.5000000), wk =   0.1481481
        k(    9) = (  -0.5000000  -0.1666667   0.1666667), wk =   0.1481481
        k(   10) = (   0.5000000  -0.1666667  -0.1666667), wk =   0.1481481
        k(   11) = (  -0.1666667  -0.5000000   0.1666667), wk =   0.1481481
        k(   12) = (  -0.1666667   0.5000000  -0.1666667), wk =   0.1481481
        k(   13) = (  -0.5000000   0.1666667   0.5000000), wk =   0.1481481
        k(   14) = (  -0.5000000   0.5000000   0.1666667), wk =   0.1481481

     Dense  grid:     9771 G-vectors     FFT dimensions: (  27,  27,  27)

     Smooth grid:     6859 G-vectors     FFT dimensions: (  24,  24,  24)

     Estimated max dynamical RAM per process >      38.81 MB

     Initial potential from superposition of free atoms

     starting charge   86.93358, renormalised to   87.00000
     Starting wfcs are  116 randomized atomic wfcs
     Checking if some PAW data can be deallocated... 

     total cpu time spent up to now is        3.0 secs

     Self-consistent Calculation

     iteration #  1     ecut=    25.00 Ry     beta= 0.10
     Davidson diagonalization with overlap
     ethr =  1.00E-02,  avg # of iterations =  5.4

     total cpu time spent up to now is        8.8 secs

     total energy              =    -982.99841602 Ry
     Harris-Foulkes estimate   =    -985.92955258 Ry
     estimated scf accuracy    <      28.74902484 Ry

     iteration #  2     ecut=    25.00 Ry     beta= 0.10
     Davidson diagonalization with overlap
     ethr =  1.00E-02,  avg # of iterations =  1.0

     total cpu time spent up to now is       11.4 secs

     total energy              =    -972.17437196 Ry
     Harris-Foulkes estimate   =    -983.12360949 Ry
     estimated scf accuracy    <      21.88230083 Ry

     iteration #  3     ecut=    25.00 Ry     beta= 0.10
     Davidson diagonalization with overlap
     ethr =  1.00E-02,  avg # of iterations =  3.6

     total cpu time spent up to now is       15.4 secs

     total energy              =    -976.42653537 Ry
     Harris-Foulkes estimate   =    -976.41408394 Ry
     estimated scf accuracy    <       3.02322301 Ry

     iteration #  4     ecut=    25.00 Ry     beta= 0.10
     Davidson diagonalization with overlap
     ethr =  3.47E-03,  avg # of iterations =  2.0

     total cpu time spent up to now is       18.1 secs

     total energy              =    -976.28159404 Ry
     Harris-Foulkes estimate   =    -976.80901584 Ry
     estimated scf accuracy    <       1.59366597 Ry

     iteration #  5     ecut=    25.00 Ry     beta= 0.10
     Davidson diagonalization with overlap
     ethr =  1.83E-03,  avg # of iterations =  3.4

     total cpu time spent up to now is       21.5 secs

     total energy              =    -975.54815029 Ry
     Harris-Foulkes estimate   =    -976.78397047 Ry
     estimated scf accuracy    <       4.49719551 Ry

     iteration #  6     ecut=    25.00 Ry     beta= 0.10
     Davidson diagonalization with overlap
     ethr =  1.83E-03,  avg # of iterations =  2.5

     total cpu time spent up to now is       24.4 secs

     total energy              =    -975.78720526 Ry
     Harris-Foulkes estimate   =    -975.85883536 Ry
     estimated scf accuracy    <       0.66625963 Ry

     iteration #  7     ecut=    25.00 Ry     beta= 0.10
     Davidson diagonalization with overlap
     ethr =  7.66E-04,  avg # of iterations =  2.7

     total cpu time spent up to now is       27.2 secs

     total energy              =    -975.86231125 Ry
     Harris-Foulkes estimate   =    -975.85381601 Ry
     estimated scf accuracy    <       0.18299275 Ry

     iteration #  8     ecut=    25.00 Ry     beta= 0.10
     Davidson diagonalization with overlap
     ethr =  2.10E-04,  avg # of iterations =  5.6

     total cpu time spent up to now is       31.0 secs

     total energy              =    -975.89458581 Ry
     Harris-Foulkes estimate   =    -975.89871061 Ry
     estimated scf accuracy    <       0.02481017 Ry

     iteration #  9     ecut=    25.00 Ry     beta= 0.10
     Davidson diagonalization with overlap
     ethr =  2.85E-05,  avg # of iterations =  5.0

     total cpu time spent up to now is       35.0 secs

     total energy              =    -975.89872428 Ry
     Harris-Foulkes estimate   =    -975.90245749 Ry
     estimated scf accuracy    <       0.02523196 Ry

     iteration # 10     ecut=    25.00 Ry     beta= 0.10
     Davidson diagonalization with overlap
     ethr =  2.85E-05,  avg # of iterations =  1.0

     total cpu time spent up to now is       37.6 secs

     total energy              =    -975.89869105 Ry
     Harris-Foulkes estimate   =    -975.90026633 Ry
     estimated scf accuracy    <       0.00533087 Ry

     iteration # 11     ecut=    25.00 Ry     beta= 0.10
     Davidson diagonalization with overlap
     ethr =  6.13E-06,  avg # of iterations =  3.1

     total cpu time spent up to now is       40.5 secs

     total energy              =    -975.89901843 Ry
     Harris-Foulkes estimate   =    -975.89924974 Ry
     estimated scf accuracy    <       0.00187785 Ry

     iteration # 12     ecut=    25.00 Ry     beta= 0.10
     Davidson diagonalization with overlap
     ethr =  2.16E-06,  avg # of iterations =  5.9

     total cpu time spent up to now is       43.6 secs

     total energy              =    -975.89888661 Ry
     Harris-Foulkes estimate   =    -975.89914232 Ry
     estimated scf accuracy    <       0.00188649 Ry

     iteration # 13     ecut=    25.00 Ry     beta= 0.10
     Davidson diagonalization with overlap
     ethr =  2.16E-06,  avg # of iterations =  1.2

     total cpu time spent up to now is       46.3 secs

     total energy              =    -975.89867138 Ry
     Harris-Foulkes estimate   =    -975.89893871 Ry
     estimated scf accuracy    <       0.00134456 Ry

     iteration # 14     ecut=    25.00 Ry     beta= 0.10
     Davidson diagonalization with overlap
     ethr =  1.55E-06,  avg # of iterations =  1.9

     total cpu time spent up to now is       48.9 secs

     total energy              =    -975.89842758 Ry
     Harris-Foulkes estimate   =    -975.89879048 Ry
     estimated scf accuracy    <       0.00120072 Ry

     iteration # 15     ecut=    25.00 Ry     beta= 0.10
     Davidson diagonalization with overlap
     ethr =  1.38E-06,  avg # of iterations =  2.9

     total cpu time spent up to now is       51.9 secs

     total energy              =    -975.89861466 Ry
     Harris-Foulkes estimate   =    -975.89861092 Ry
     estimated scf accuracy    <       0.00003877 Ry

     iteration # 16     ecut=    25.00 Ry     beta= 0.10
     Davidson diagonalization with overlap
     ethr =  4.46E-08,  avg # of iterations =  5.2

     total cpu time spent up to now is       57.2 secs

     total energy              =    -975.89862328 Ry
     Harris-Foulkes estimate   =    -975.89864722 Ry
     estimated scf accuracy    <       0.00007989 Ry

     iteration # 17     ecut=    25.00 Ry     beta= 0.10
     Davidson diagonalization with overlap
     ethr =  4.46E-08,  avg # of iterations =  2.5

     total cpu time spent up to now is       60.1 secs

     total energy              =    -975.89863154 Ry
     Harris-Foulkes estimate   =    -975.89863189 Ry
     estimated scf accuracy    <       0.00001958 Ry

     iteration # 18     ecut=    25.00 Ry     beta= 0.10
     Davidson diagonalization with overlap
     ethr =  2.25E-08,  avg # of iterations =  3.8

     total cpu time spent up to now is       64.7 secs

     total energy              =    -975.89862840 Ry
     Harris-Foulkes estimate   =    -975.89864319 Ry
     estimated scf accuracy    <       0.00004553 Ry

     iteration # 19     ecut=    25.00 Ry     beta= 0.10
     Davidson diagonalization with overlap
     ethr =  2.25E-08,  avg # of iterations =  2.0

     total cpu time spent up to now is       67.5 secs

     total energy              =    -975.89862973 Ry
     Harris-Foulkes estimate   =    -975.89863102 Ry
     estimated scf accuracy    <       0.00001097 Ry

     iteration # 20     ecut=    25.00 Ry     beta= 0.10
     Davidson diagonalization with overlap
     ethr =  1.26E-08,  avg # of iterations =  3.0

     total cpu time spent up to now is       70.4 secs

     total energy              =    -975.89863008 Ry
     Harris-Foulkes estimate   =    -975.89863092 Ry
     estimated scf accuracy    <       0.00000374 Ry

     iteration # 21     ecut=    25.00 Ry     beta= 0.10
     Davidson diagonalization with overlap
     ethr =  4.30E-09,  avg # of iterations =  3.1

     total cpu time spent up to now is       73.7 secs

     End of self-consistent calculation

          k = 0.1667 0.1667 0.1667 (   832 PWs)   bands (ev):

    39.1281  41.8616  44.5615  45.8234  46.7591  47.2178  47.4956  48.0625
    48.6179  49.1990  49.7449  50.5095  50.6571  50.9868  51.2530  51.6049
    51.8944  52.2438  52.3723  52.5650  52.9171  53.1502  53.5642  53.7277
    54.3523  54.4392  54.7881  55.3360  55.5619  56.0082  56.5439  57.4386
    58.1696  58.2726  58.5836  59.4039  59.5842  59.6987  60.3463  61.2789
    61.5235  62.0805  62.2341  62.3567  62.5942  62.7712  62.9474  63.3062
    63.4951  63.6215  63.8868  64.1924  64.5707

          k = 0.1667 0.1667-0.5000 (   852 PWs)   bands (ev):

    39.9400  41.1641  44.8505  46.4254  47.1057  48.3133  48.4869  48.6876
    48.8008  49.2221  49.3070  49.7373  49.8731  50.3062  50.7155  51.4608
    51.5143  51.8957  52.6203  52.6890  52.8858  53.3111  53.5438  53.7302
    54.0435  54.2136  54.9972  55.5790  55.9294  56.2653  56.9482  57.2377
    58.2439  58.5052  59.4553  59.5924  59.7969  59.8920  60.1964  60.5395
    60.7078  60.7693  61.0533  61.1756  61.6488  61.8835  61.9803  62.0381
    62.3281  62.9465  63.1642  63.7322  63.9577

          k = 0.1667-0.5000-0.5000 (   860 PWs)   bands (ev):

    40.2265  41.4772  44.7196  46.4884  47.1521  48.3040  48.9898  49.7177
    49.7402  49.7581  49.9217  49.9542  50.1630  50.4741  50.6803  50.7914
    50.9067  51.2755  51.4916  51.9098  52.1536  53.2992  53.8931  54.1203
    54.2263  54.4187  54.6533  55.5065  55.6984  56.8646  57.2405  57.8817
    58.3031  58.7162  58.9046  59.0551  59.1944  59.4032  59.5764  59.9063
    60.0647  60.3276  60.9027  61.0143  61.0727  61.1312  61.2912  61.6620
    61.9202  62.6804  63.4078  63.7336  64.4549

          k =-0.5000-0.5000-0.5000 (   840 PWs)   bands (ev):

    40.4118  41.6560  44.7904  47.7582  47.8228  47.9035  47.9540  48.0443
    49.6091  50.7535  51.1267  51.4216  51.4605  51.4805  51.5303  51.5570
    51.5624  51.6187  51.6510  51.6695  51.7110  52.1274  52.3132  52.5670
    52.9954  53.0559  53.9445  54.6676  55.9904  57.1382  57.6292  58.3583
    59.2035  59.4588  59.5791  59.6152  59.6841  59.7670  59.7908  59.8585
    59.9005  59.9739  60.0221  60.0920  60.1290  60.2757  60.4569  60.6515
    61.3826  62.1897  63.1405  63.4511  63.9877

          k =-0.1667-0.1667 0.1667 (   832 PWs)   bands (ev):

    39.1277  41.8634  44.5644  45.8164  46.7642  47.2011  47.5005  48.0488
    48.6394  49.1986  49.7640  50.4944  50.6447  50.9966  51.2514  51.6065
    51.9006  52.2671  52.3536  52.5716  52.9270  53.1270  53.5520  53.7346
    54.3623  54.4332  54.7760  55.3269  55.5646  56.0231  56.5548  57.4331
    58.1828  58.2225  58.6065  59.4025  59.6100  59.6822  60.3550  61.2710
    61.5586  62.0580  62.2205  62.3398  62.5695  62.7632  62.9646  63.3089
    63.4936  63.6381  63.9071  64.1754  64.5847

          k =-0.1667 0.1667-0.1667 (   832 PWs)   bands (ev):

    39.1080  41.9086  44.7641  45.5294  46.8070  47.1881  47.5418  47.9839
    48.5072  49.2942  50.2578  50.5066  50.5469  50.6581  51.1009  51.6289
    51.8698  52.1857  52.4160  52.8156  52.8885  53.1066  53.5944  53.6287
    54.3464  54.5302  55.0104  55.1359  55.4926  56.2358  56.5237  56.9376
    58.1839  58.3211  58.7093  59.5586  59.6039  59.8787  60.1380  61.2289
    61.6362  62.0707  62.1545  62.2864  62.4222  62.6491  62.7165  63.3186
    63.4902  63.6174  64.0621  64.3230  64.5498

          k = 0.1667-0.1667-0.1667 (   832 PWs)   bands (ev):

    39.1537  41.7682  44.7281  45.7192  46.8041  47.2342  47.2949  48.0089
    48.7986  49.1201  49.8530  50.6009  50.6955  50.9924  51.3175  51.4752
    51.9017  52.2220  52.3747  52.6475  52.7277  53.2496  53.4998  53.9248
    54.1688  54.4845  54.6483  55.2285  55.4435  56.2438  56.8977  57.6436
    58.0947  58.2413  58.3053  59.4447  59.5438  59.9646  60.2557  61.2446
    61.8319  61.8864  62.0047  62.2564  62.3127  62.8461  62.9809  63.1482
    63.2995  63.7069  63.8313  64.1030  64.4185

          k =-0.1667 0.1667 0.5000 (   852 PWs)   bands (ev):

    39.9393  41.1663  44.8483  46.4249  47.0891  48.3321  48.5137  48.6598
    48.7828  49.2021  49.3051  49.6234  50.0293  50.4281  50.7803  51.1330
    51.5957  51.9727  52.6135  52.6926  52.8677  53.2746  53.4749  53.8043
    54.0453  54.2055  55.0435  55.6239  55.9759  56.1949  56.8319  57.3121
    58.3060  58.7032  59.5078  59.5253  59.7036  59.9649  60.2743  60.5617
    60.7144  60.8707  61.0112  61.1270  61.3511  61.5055  61.8502  62.1241
    62.4957  62.5818  63.1192  63.6574  64.3604

          k =-0.5000-0.1667 0.1667 (   852 PWs)   bands (ev):

    39.6367  41.8204  44.5184  46.0420  47.2428  48.0784  48.3343  48.4048
    48.9127  49.1639  49.5748  49.8327  50.0979  50.5609  50.8619  51.3732
    51.7484  51.8716  52.3502  52.4509  52.9236  53.1455  53.6993  53.8698
    53.9970  54.3067  54.9137  55.4846  55.8582  56.6382  57.0925  57.5879
    58.0245  58.6886  59.2917  59.4788  59.6655  59.8574  60.0325  60.2551
    60.6028  60.8241  61.2250  61.3712  61.4735  61.6170  62.0237  62.3043
    62.5127  63.0230  63.4495  63.7428  64.0603

          k = 0.5000-0.1667-0.1667 (   852 PWs)   bands (ev):

    39.6608  41.7887  44.3855  46.1001  47.4417  48.0762  48.3719  48.4603
    48.8903  48.9360  49.5782  49.7651  50.1960  50.5154  50.9187  51.4077
    51.8320  51.8909  52.3212  52.4674  52.8601  53.2377  53.4392  53.8185
    54.1277  54.2877  54.9042  55.4498  55.9712  56.6324  57.1009  57.6547
    58.0119  58.8192  59.4357  59.5435  59.7390  59.8380  59.9296  60.2507
    60.5748  60.8307  61.1504  61.2233  61.6573  61.8424  61.9581  62.0366
    62.4633  62.8680  63.3878  63.6510  64.0149

          k =-0.1667-0.5000 0.1667 (   852 PWs)   bands (ev):

    39.6605  41.7917  44.3767  46.0856  47.4833  48.0913  48.3517  48.4603
    48.8545  48.9479  49.6093  49.8189  50.1948  50.4926  50.8851  51.4118
    51.7908  51.8647  52.3473  52.4938  52.8552  53.2350  53.4484  53.7967
    54.1143  54.2915  54.8865  55.4318  55.9690  56.6729  57.1172  57.6183
    58.0132  58.8437  59.4591  59.5452  59.7347  59.8525  59.9386  60.2811
    60.5776  60.8101  61.1020  61.2396  61.6666  61.8616  61.9648  62.0306
    62.4147  62.8778  63.3592  63.7047  63.9511

          k =-0.1667 0.5000-0.1667 (   852 PWs)   bands (ev):

    39.6368  41.8225  44.5088  46.0142  47.3045  48.0899  48.3192  48.4164
    48.8901  49.1922  49.5682  49.8601  50.1102  50.5590  50.8037  51.3521
    51.7505  51.8356  52.3650  52.4399  52.9368  53.1672  53.7126  53.8413
    53.9696  54.3291  54.9475  55.4496  55.8430  56.6488  57.1130  57.5584
    58.0418  58.6938  59.3496  59.4788  59.6525  59.8304  60.0222  60.2494
    60.6248  60.8412  61.1861  61.4135  61.4695  61.6447  61.9966  62.2786
    62.5451  62.9741  63.4494  63.7305  64.0558

          k =-0.5000 0.1667 0.5000 (   860 PWs)   bands (ev):

    40.2280  41.4760  44.7086  46.5228  47.1667  48.2463  48.9498  49.7173
    49.7487  49.7700  49.9509  49.9657  50.1261  50.4704  50.6913  50.8019
    50.8918  51.2618  51.5025  51.9296  52.1773  53.3141  53.9007  54.1113
    54.2062  54.4288  54.6506  55.5523  55.6841  56.8538  57.2618  57.8665
    58.3208  58.7274  58.8872  59.0218  59.1556  59.3834  59.5697  59.9169
    60.0820  60.3102  60.9243  61.0077  61.0608  61.0986  61.2879  61.6957
    61.9409  62.6800  63.4028  63.7721  64.4808

          k =-0.5000 0.5000 0.1667 (   860 PWs)   bands (ev):

    40.0159  41.8947  44.4686  46.4508  47.3217  47.8752  49.2049  49.5511
    49.7594  49.9127  49.9596  49.9919  50.0769  50.3645  50.5230  50.7523
    50.9608  51.0502  51.8419  51.9565  52.0851  53.3810  53.8717  54.1459
    54.1874  54.4517  54.5921  55.0033  56.2312  56.9480  57.7706  58.2279
    58.6119  58.7642  58.8554  59.1058  59.1957  59.4195  59.5376  59.8935
    59.9285  60.4414  60.5745  60.8673  60.9387  61.1749  61.1973  61.9230
    62.0108  62.5644  62.8938  63.2635  64.4330

     the Fermi energy is    61.3716 ev

!    total energy              =    -975.89863053 Ry
     Harris-Foulkes estimate   =    -975.89863079 Ry
     estimated scf accuracy    <       0.00000053 Ry

     total all-electron energy =    -13914.039266 Ry

     The total energy is the sum of the following terms:

     one-electron contribution =     485.48520219 Ry
     hartree contribution      =       6.17926715 Ry
     xc contribution           =    -133.27779244 Ry
     ewald contribution        =    -300.91622580 Ry
     one-center paw contrib.   =   -1033.36983591 Ry
     smearing contrib. (-TS)   =       0.00075427 Ry

     convergence has been achieved in  21 iterations

     Forces acting on atoms (cartesian axes, Ry/au):

     atom    1 type  1   force =    -1.17543839    2.34394858   -1.26104772
     atom    2 type  1   force =    -1.34470202   -0.03767133   -1.16240419
     atom    3 type  1   force =    -1.21830216    0.05460809    1.13513933
     atom    4 type  1   force =    -1.23026409   -1.21404344    0.00675428
     atom    5 type  1   force =    -2.39425527   -1.15754094    1.19053752
     atom    6 type  1   force =    -2.31528301    1.20524825   -1.14594538
     atom    7 type  1   force =    -1.12089673   -2.35376585   -1.16619546
     atom    8 type  1   force =    -0.10678224    0.02710452    0.02549989
     atom    9 type  1   force =    -0.04425643   -0.04960106   -0.04414919
     atom   10 type  1   force =    -0.03461491    1.24011900    1.17497783
     atom   11 type  1   force =    -0.01111522   -1.37893658    1.17754897
     atom   12 type  1   force =    -1.16911968    1.17306662    0.01254549
     atom   13 type  1   force =    -1.23906252   -1.20984556    0.05349325
     atom   14 type  1   force =    -0.02658621    1.31251974   -1.17758913
     atom   15 type  1   force =     1.20132596    1.22873012   -0.05971503
     atom   16 type  1   force =     1.25203267    1.21753718   -0.00426923
     atom   17 type  1   force =     1.24339426   -0.02614789   -1.24294623
     atom   18 type  1   force =     0.06563030   -0.00548127    0.04822100
     atom   19 type  1   force =     2.35813027   -1.13243025    1.25909614
     atom   20 type  1   force =     2.32382555    2.29307737   -0.02569866
     atom   21 type  1   force =     1.26326455   -0.06730584    1.21336866
     atom   22 type  1   force =     1.18421519   -1.17966014   -0.02077479
     atom   23 type  1   force =     0.04634282    0.01975822   -0.01372520
     atom   24 type  1   force =     0.01032490   -1.18325177   -1.14602649
     atom   25 type  1   force =     0.01441854   -0.02701332   -0.00261901
     atom   26 type  1   force =     0.07507575   -0.00550638   -0.00743027
     atom   27 type  1   force =     1.12960469    1.16231478    0.05550367
     atom   28 type  1   force =     1.16891607   -2.28814495    1.13965381
     atom   29 type  1   force =     0.09417737    0.03831410   -0.01180386

     Total force =    10.225878     Total SCF correction =     0.000807


     Computing stress (Cartesian axis) and pressure

          total   stress  (Ry/bohr**3)                   (kbar)     P=88647.49
   0.60217567  -0.00015563  -0.00530647      88583.08    -22.89   -780.61
  -0.00015563   0.60196421   0.00546912        -22.89  88551.98    804.54
  -0.00530647   0.00546912   0.60370056       -780.61    804.54  88807.40


     Writing output data file WUnFAjCldEBKcZoU.save/

     init_run     :      2.65s CPU      2.70s WALL (       1 calls)
     electrons    :     70.58s CPU     70.67s WALL (       1 calls)
     forces       :      0.75s CPU      0.76s WALL (       1 calls)
     stress       :      0.87s CPU      0.87s WALL (       1 calls)

     Called by init_run:
     wfcinit      :      1.69s CPU      1.69s WALL (       1 calls)
     potinit      :      0.84s CPU      0.87s WALL (       1 calls)
     hinit0       :      0.11s CPU      0.11s WALL (       1 calls)

     Called by electrons:
     c_bands      :     47.26s CPU     47.34s WALL (      21 calls)
     sum_band     :      4.86s CPU      4.86s WALL (      21 calls)
     v_of_rho     :      0.18s CPU      0.18s WALL (      22 calls)
     newd         :      0.42s CPU      0.43s WALL (      22 calls)
     PAW_pot      :     18.66s CPU     18.70s WALL (      22 calls)
     mix_rho      :      0.03s CPU      0.03s WALL (      21 calls)

     Called by c_bands:
     init_us_2    :      0.26s CPU      0.27s WALL (     630 calls)
     cegterg      :     46.53s CPU     46.61s WALL (     294 calls)

     Called by sum_band:
     sum_band:bec :      0.05s CPU      0.05s WALL (     294 calls)
     addusdens    :      0.17s CPU      0.17s WALL (      21 calls)

     Called by *egterg:
     h_psi        :     21.97s CPU     22.02s WALL (    1241 calls)
     s_psi        :      6.74s CPU      6.76s WALL (    1241 calls)
     g_psi        :      0.07s CPU      0.07s WALL (     933 calls)
     cdiaghg      :      7.69s CPU      7.69s WALL (    1227 calls)

     Called by h_psi:
     h_psi:pot    :     21.91s CPU     21.96s WALL (    1241 calls)
     h_psi:calbec :      8.49s CPU      8.49s WALL (    1241 calls)
     vloc_psi     :      6.66s CPU      6.71s WALL (    1241 calls)
     add_vuspsi   :      6.76s CPU      6.76s WALL (    1241 calls)

     General routines
     calbec       :     12.45s CPU     12.46s WALL (    1605 calls)
     fft          :      0.07s CPU      0.07s WALL (     309 calls)
     ffts         :      0.01s CPU      0.01s WALL (      43 calls)
     fftw         :      7.13s CPU      7.17s WALL (   98016 calls)
     interpolate  :      0.01s CPU      0.01s WALL (      22 calls)

     Parallel routines

     PWSCF        :   1m15.16s CPU   1m15.31s WALL


   This run was terminated on:  16:49:46  18Mar2020            

=------------------------------------------------------------------------------=
   JOB DONE.
=------------------------------------------------------------------------------=
