
     Program PWSCF v.6.4.1 starts on 19Apr2020 at 17:40:42 

     This program is part of the open-source Quantum ESPRESSO suite
     for quantum simulation of materials; please cite
         "P. Giannozzi et al., J. Phys.:Condens. Matter 21 395502 (2009);
         "P. Giannozzi et al., J. Phys.:Condens. Matter 29 465901 (2017);
          URL http://www.quantum-espresso.org", 
     in publications or presentations arising from this work. More details at
     http://www.quantum-espresso.org/quote

     Parallel version (MPI), running on     1 processors

     MPI processes distributed on     1 nodes
     Reading input from wd/configs/2/config_0003.in
Warning: card &IONS ignored
Warning: card ION_DYNAMICS = 'BFGS', ignored
Warning: card / ignored
Warning: card &CELL ignored
Warning: card CELL_DYNAMICS = 'BFGS', ignored
Warning: card CELL_FACTOR = 2.0, ignored
Warning: card PRESS = 0.0, ignored
Warning: card / ignored

     Current dimensions of program PWSCF are:
     Max number of different atomic species (ntypx) = 10
     Max number of k-points (npk) =  40000
     Max angular momentum in pseudopotentials (lmaxx) =  3
               file Al.pbe-nl-kjpaw_psl.1.0.0.UPF: wavefunction(s)  3S 3P renormalized

     Subspace diagonalization in iterative solution of the eigenvalue problem:
     a serial algorithm will be used


     G-vector sticks info
     --------------------
     sticks:   dense  smooth     PW     G-vecs:    dense   smooth      PW
     Sum         593     465    145                10779     7497    1365



     bravais-lattice index     =            0
     lattice parameter (alat)  =       7.6416  a.u.
     unit-cell volume          =     446.2205 (a.u.)^3
     number of atoms/cell      =            2
     number of atomic types    =            1
     number of electrons       =         6.00
     number of Kohn-Sham states=            7
     kinetic-energy cutoff     =      25.0000  Ry
     charge density cutoff     =     126.0000  Ry
     convergence threshold     =      1.0E-06
     mixing beta               =       0.1000
     number of iterations used =           10  TF        mixing
     Exchange-correlation      = SLA PW PBX PBC ( 1  4  3  4 0 0)

     celldm(1)=   7.641580  celldm(2)=   0.000000  celldm(3)=   0.000000
     celldm(4)=   0.000000  celldm(5)=   0.000000  celldm(6)=   0.000000

     crystal axes: (cart. coord. in units of alat)
               a(1) = (   1.000000   0.000000   0.000000 )  
               a(2) = (   0.000000   1.000000   0.000000 )  
               a(3) = (   0.000000   0.000000   1.000000 )  

     reciprocal axes: (cart. coord. in units 2 pi/alat)
               b(1) = (  1.000000  0.000000  0.000000 )  
               b(2) = (  0.000000  1.000000  0.000000 )  
               b(3) = (  0.000000  0.000000  1.000000 )  


     PseudoPot. # 1 for Al read from file:
     /opt/pp/Al.pbe-nl-kjpaw_psl.1.0.0.UPF
     MD5 check sum: 1b67f78b73fe58c7924490f171ce8a1e
     Pseudo is Projector augmented-wave + core cor, Zval =  3.0
     Generated using "atomic" code by A. Dal Corso v.6.3
     Shape of augmentation charge: PSQ
     Using radial grid of 1135 points,  4 beta functions with: 
                l(1) =   0
                l(2) =   0
                l(3) =   1
                l(4) =   1
     Q(r) pseudized with 0 coefficients 


     atomic species   valence    mass     pseudopotential
        Al             3.00    26.98200     Al( 1.00)

     No symmetry found



   Cartesian axes

     site n.     atom                  positions (alat units)
         1           Al  tau(   1) = (  -0.0014392  -0.0012706  -0.0010367  )
         2           Al  tau(   2) = (   0.4990095   0.4979320   0.4989724  )

     number of k points=    14  Marzari-Vanderbilt smearing, width (Ry)=  0.0200
                       cart. coord. in units 2pi/alat
        k(    1) = (   0.1666667   0.1666667   0.1666667), wk =   0.1481481
        k(    2) = (   0.1666667   0.1666667  -0.5000000), wk =   0.1481481
        k(    3) = (   0.1666667  -0.5000000  -0.5000000), wk =   0.1481481
        k(    4) = (  -0.5000000  -0.5000000  -0.5000000), wk =   0.0740741
        k(    5) = (  -0.1666667  -0.1666667   0.1666667), wk =   0.1481481
        k(    6) = (  -0.1666667   0.1666667  -0.1666667), wk =   0.1481481
        k(    7) = (   0.1666667  -0.1666667  -0.1666667), wk =   0.1481481
        k(    8) = (  -0.1666667   0.1666667   0.5000000), wk =   0.1481481
        k(    9) = (  -0.5000000  -0.1666667   0.1666667), wk =   0.1481481
        k(   10) = (   0.5000000  -0.1666667  -0.1666667), wk =   0.1481481
        k(   11) = (  -0.1666667  -0.5000000   0.1666667), wk =   0.1481481
        k(   12) = (  -0.1666667   0.5000000  -0.1666667), wk =   0.1481481
        k(   13) = (  -0.5000000   0.1666667   0.5000000), wk =   0.1481481
        k(   14) = (  -0.5000000   0.5000000   0.1666667), wk =   0.1481481

     Dense  grid:    10779 G-vectors     FFT dimensions: (  27,  27,  27)

     Smooth grid:     7497 G-vectors     FFT dimensions: (  25,  25,  25)

     Estimated max dynamical RAM per process >      16.74 MB

     Initial potential from superposition of free atoms

     starting charge    5.99542, renormalised to    6.00000
     Starting wfcs are    8 randomized atomic wfcs
     Checking if some PAW data can be deallocated... 

     total cpu time spent up to now is        0.5 secs

     Self-consistent Calculation

     iteration #  1     ecut=    25.00 Ry     beta= 0.10
     Davidson diagonalization with overlap
     ethr =  1.00E-02,  avg # of iterations =  2.5

     Threshold (ethr) on eigenvalues was too large:
     Diagonalizing with lowered threshold

     Davidson diagonalization with overlap
     ethr =  1.63E-04,  avg # of iterations =  2.0

     total cpu time spent up to now is        0.8 secs

     total energy              =     -78.83896900 Ry
     Harris-Foulkes estimate   =     -78.83930197 Ry
     estimated scf accuracy    <       0.00942318 Ry

     iteration #  2     ecut=    25.00 Ry     beta= 0.10
     Davidson diagonalization with overlap
     ethr =  1.57E-04,  avg # of iterations =  1.0

     total cpu time spent up to now is        0.9 secs

     total energy              =     -78.83645162 Ry
     Harris-Foulkes estimate   =     -78.83901375 Ry
     estimated scf accuracy    <       0.00823298 Ry

     iteration #  3     ecut=    25.00 Ry     beta= 0.10
     Davidson diagonalization with overlap
     ethr =  1.37E-04,  avg # of iterations =  1.0

     total cpu time spent up to now is        1.1 secs

     total energy              =     -78.83681063 Ry
     Harris-Foulkes estimate   =     -78.83689246 Ry
     estimated scf accuracy    <       0.00004083 Ry

     iteration #  4     ecut=    25.00 Ry     beta= 0.10
     Davidson diagonalization with overlap
     ethr =  6.81E-07,  avg # of iterations =  3.2

     total cpu time spent up to now is        1.3 secs

     total energy              =     -78.83679909 Ry
     Harris-Foulkes estimate   =     -78.83686339 Ry
     estimated scf accuracy    <       0.00002042 Ry

     iteration #  5     ecut=    25.00 Ry     beta= 0.10
     Davidson diagonalization with overlap
     ethr =  3.40E-07,  avg # of iterations =  1.6

     total cpu time spent up to now is        1.4 secs

     total energy              =     -78.83678647 Ry
     Harris-Foulkes estimate   =     -78.83680135 Ry
     estimated scf accuracy    <       0.00002015 Ry

     iteration #  6     ecut=    25.00 Ry     beta= 0.10
     Davidson diagonalization with overlap
     ethr =  3.36E-07,  avg # of iterations =  1.9

     total cpu time spent up to now is        1.5 secs

     End of self-consistent calculation

          k = 0.1667 0.1667 0.1667 (   943 PWs)   bands (ev):

    -4.1184   0.5871   2.3449   2.3461   6.3304   6.3852   7.7383

          k = 0.1667 0.1667-0.5000 (   950 PWs)   bands (ev):

    -2.2163  -2.2102   3.2522   3.2581   4.2109   4.2170   8.0293

          k = 0.1667-0.5000-0.5000 (   944 PWs)   bands (ev):

    -0.9050  -0.8986   0.5400   0.5436   5.1913   5.1988   6.1862

          k =-0.5000-0.5000-0.5000 (   968 PWs)   bands (ev):

     0.1394   0.1453   2.4443   2.4488   2.4494   2.4530   2.4581

          k =-0.1667-0.1667 0.1667 (   943 PWs)   bands (ev):

    -4.1184   0.5879   2.3437   2.3459   6.3317   6.3866   7.7372

          k =-0.1667 0.1667-0.1667 (   943 PWs)   bands (ev):

    -4.1184   0.5872   2.3448   2.3460   6.3300   6.3860   7.7386

          k = 0.1667-0.1667-0.1667 (   943 PWs)   bands (ev):

    -4.1184   0.5880   2.3437   2.3455   6.3315   6.3874   7.7381

          k =-0.1667 0.1667 0.5000 (   950 PWs)   bands (ev):

    -2.2163  -2.2102   3.2526   3.2583   4.2104   4.2167   8.0282

          k =-0.5000-0.1667 0.1667 (   950 PWs)   bands (ev):

    -2.2141  -2.2124   3.2546   3.2561   4.2124   4.2151   8.0301

          k = 0.5000-0.1667-0.1667 (   950 PWs)   bands (ev):

    -2.2141  -2.2124   3.2545   3.2563   4.2122   4.2151   8.0291

          k =-0.1667-0.5000 0.1667 (   950 PWs)   bands (ev):

    -2.2165  -2.2100   3.2547   3.2582   4.2079   4.2166   8.0305

          k =-0.1667 0.5000-0.1667 (   950 PWs)   bands (ev):

    -2.2165  -2.2100   3.2531   3.2566   4.2103   4.2189   8.0300

          k =-0.5000 0.1667 0.5000 (   944 PWs)   bands (ev):

    -0.9043  -0.8990   0.5385   0.5445   5.1933   5.1980   6.1877

          k =-0.5000 0.5000 0.1667 (   944 PWs)   bands (ev):

    -0.9034  -0.9003   0.5407   0.5429   5.1949   5.1952   6.1864

     the Fermi energy is     2.4872 ev

!    total energy              =     -78.83678670 Ry
     Harris-Foulkes estimate   =     -78.83678871 Ry
     estimated scf accuracy    <       0.00000057 Ry

     total all-electron energy =      -971.122348 Ry

     The total energy is the sum of the following terms:

     one-electron contribution =       3.57455782 Ry
     hartree contribution      =       0.09961533 Ry
     xc contribution           =      -4.62244398 Ry
     ewald contribution        =      -8.57233322 Ry
     one-center paw contrib.   =     -69.31327508 Ry
     smearing contrib. (-TS)   =      -0.00290757 Ry

     convergence has been achieved in   6 iterations

     Forces acting on atoms (cartesian axes, Ry/au):

     atom    1 type  1   force =    -0.00088242    0.00094855   -0.00067791
     atom    2 type  1   force =     0.00088242   -0.00094855    0.00067791

     Total force =     0.002068     Total SCF correction =     0.000254
     SCF correction compared to forces is large: reduce conv_thr to get better values


     Computing stress (Cartesian axis) and pressure

          total   stress  (Ry/bohr**3)                   (kbar)     P= -100.70
  -0.00068275  -0.00000082  -0.00000691       -100.44     -0.12     -1.02
  -0.00000082  -0.00068903   0.00000054         -0.12   -101.36      0.08
  -0.00000691   0.00000054  -0.00068185         -1.02      0.08   -100.30


     Writing output data file MECEqXlwHvEdTQpA.save/

     init_run     :      0.23s CPU      0.23s WALL (       1 calls)
     electrons    :      1.00s CPU      1.02s WALL (       1 calls)
     forces       :      0.03s CPU      0.03s WALL (       1 calls)
     stress       :      0.08s CPU      0.08s WALL (       1 calls)

     Called by init_run:
     wfcinit      :      0.03s CPU      0.03s WALL (       1 calls)
     potinit      :      0.07s CPU      0.07s WALL (       1 calls)
     hinit0       :      0.11s CPU      0.11s WALL (       1 calls)

     Called by electrons:
     c_bands      :      0.45s CPU      0.46s WALL (       7 calls)
     sum_band     :      0.11s CPU      0.11s WALL (       7 calls)
     v_of_rho     :      0.06s CPU      0.06s WALL (       7 calls)
     newd         :      0.03s CPU      0.03s WALL (       7 calls)
     PAW_pot      :      0.42s CPU      0.42s WALL (       7 calls)
     mix_rho      :      0.00s CPU      0.00s WALL (       7 calls)

     Called by c_bands:
     init_us_2    :      0.03s CPU      0.03s WALL (     238 calls)
     cegterg      :      0.43s CPU      0.43s WALL (      98 calls)

     Called by sum_band:
     sum_band:bec :      0.00s CPU      0.00s WALL (      98 calls)
     addusdens    :      0.02s CPU      0.03s WALL (       7 calls)

     Called by *egterg:
     h_psi        :      0.34s CPU      0.35s WALL (     296 calls)
     s_psi        :      0.02s CPU      0.02s WALL (     296 calls)
     g_psi        :      0.00s CPU      0.00s WALL (     184 calls)
     cdiaghg      :      0.01s CPU      0.01s WALL (     268 calls)

     Called by h_psi:
     h_psi:pot    :      0.34s CPU      0.34s WALL (     296 calls)
     h_psi:calbec :      0.03s CPU      0.03s WALL (     296 calls)
     vloc_psi     :      0.29s CPU      0.29s WALL (     296 calls)
     add_vuspsi   :      0.02s CPU      0.02s WALL (     296 calls)

     General routines
     calbec       :      0.05s CPU      0.05s WALL (     464 calls)
     fft          :      0.03s CPU      0.03s WALL (     115 calls)
     ffts         :      0.00s CPU      0.00s WALL (      14 calls)
     fftw         :      0.30s CPU      0.31s WALL (    4258 calls)
     interpolate  :      0.00s CPU      0.00s WALL (       7 calls)

     Parallel routines

     PWSCF        :      1.64s CPU      1.66s WALL


   This run was terminated on:  17:40:44  19Apr2020            

=------------------------------------------------------------------------------=
   JOB DONE.
=------------------------------------------------------------------------------=
