
     Program PWSCF v.6.4.1 starts on 19Apr2020 at 17:40:39 

     This program is part of the open-source Quantum ESPRESSO suite
     for quantum simulation of materials; please cite
         "P. Giannozzi et al., J. Phys.:Condens. Matter 21 395502 (2009);
         "P. Giannozzi et al., J. Phys.:Condens. Matter 29 465901 (2017);
          URL http://www.quantum-espresso.org", 
     in publications or presentations arising from this work. More details at
     http://www.quantum-espresso.org/quote

     Parallel version (MPI), running on     1 processors

     MPI processes distributed on     1 nodes
     Reading input from wd/configs/2/config_0001.in
Warning: card &IONS ignored
Warning: card ION_DYNAMICS = 'BFGS', ignored
Warning: card / ignored
Warning: card &CELL ignored
Warning: card CELL_DYNAMICS = 'BFGS', ignored
Warning: card CELL_FACTOR = 2.0, ignored
Warning: card PRESS = 0.0, ignored
Warning: card / ignored

     Current dimensions of program PWSCF are:
     Max number of different atomic species (ntypx) = 10
     Max number of k-points (npk) =  40000
     Max angular momentum in pseudopotentials (lmaxx) =  3
               file Al.pbe-nl-kjpaw_psl.1.0.0.UPF: wavefunction(s)  3S 3P renormalized

     Subspace diagonalization in iterative solution of the eigenvalue problem:
     a serial algorithm will be used


     G-vector sticks info
     --------------------
     sticks:   dense  smooth     PW     G-vecs:    dense   smooth      PW
     Sum         593     465    145                10779     7497    1365



     bravais-lattice index     =            0
     lattice parameter (alat)  =       7.6352  a.u.
     unit-cell volume          =     445.0951 (a.u.)^3
     number of atoms/cell      =            2
     number of atomic types    =            1
     number of electrons       =         6.00
     number of Kohn-Sham states=            7
     kinetic-energy cutoff     =      25.0000  Ry
     charge density cutoff     =     126.0000  Ry
     convergence threshold     =      1.0E-06
     mixing beta               =       0.1000
     number of iterations used =           10  TF        mixing
     Exchange-correlation      = SLA PW PBX PBC ( 1  4  3  4 0 0)

     celldm(1)=   7.635150  celldm(2)=   0.000000  celldm(3)=   0.000000
     celldm(4)=   0.000000  celldm(5)=   0.000000  celldm(6)=   0.000000

     crystal axes: (cart. coord. in units of alat)
               a(1) = (   1.000000   0.000000   0.000000 )  
               a(2) = (   0.000000   1.000000   0.000000 )  
               a(3) = (   0.000000   0.000000   1.000000 )  

     reciprocal axes: (cart. coord. in units 2 pi/alat)
               b(1) = (  1.000000  0.000000  0.000000 )  
               b(2) = (  0.000000  1.000000  0.000000 )  
               b(3) = (  0.000000  0.000000  1.000000 )  


     PseudoPot. # 1 for Al read from file:
     /opt/pp/Al.pbe-nl-kjpaw_psl.1.0.0.UPF
     MD5 check sum: 1b67f78b73fe58c7924490f171ce8a1e
     Pseudo is Projector augmented-wave + core cor, Zval =  3.0
     Generated using "atomic" code by A. Dal Corso v.6.3
     Shape of augmentation charge: PSQ
     Using radial grid of 1135 points,  4 beta functions with: 
                l(1) =   0
                l(2) =   0
                l(3) =   1
                l(4) =   1
     Q(r) pseudized with 0 coefficients 


     atomic species   valence    mass     pseudopotential
        Al             3.00    26.98200     Al( 1.00)

     No symmetry found



   Cartesian axes

     site n.     atom                  positions (alat units)
         1           Al  tau(   1) = (  -0.0014405  -0.0012717  -0.0010376  )
         2           Al  tau(   2) = (   0.4990087   0.4979303   0.4989716  )

     number of k points=    14  Marzari-Vanderbilt smearing, width (Ry)=  0.0200
                       cart. coord. in units 2pi/alat
        k(    1) = (   0.1666667   0.1666667   0.1666667), wk =   0.1481481
        k(    2) = (   0.1666667   0.1666667  -0.5000000), wk =   0.1481481
        k(    3) = (   0.1666667  -0.5000000  -0.5000000), wk =   0.1481481
        k(    4) = (  -0.5000000  -0.5000000  -0.5000000), wk =   0.0740741
        k(    5) = (  -0.1666667  -0.1666667   0.1666667), wk =   0.1481481
        k(    6) = (  -0.1666667   0.1666667  -0.1666667), wk =   0.1481481
        k(    7) = (   0.1666667  -0.1666667  -0.1666667), wk =   0.1481481
        k(    8) = (  -0.1666667   0.1666667   0.5000000), wk =   0.1481481
        k(    9) = (  -0.5000000  -0.1666667   0.1666667), wk =   0.1481481
        k(   10) = (   0.5000000  -0.1666667  -0.1666667), wk =   0.1481481
        k(   11) = (  -0.1666667  -0.5000000   0.1666667), wk =   0.1481481
        k(   12) = (  -0.1666667   0.5000000  -0.1666667), wk =   0.1481481
        k(   13) = (  -0.5000000   0.1666667   0.5000000), wk =   0.1481481
        k(   14) = (  -0.5000000   0.5000000   0.1666667), wk =   0.1481481

     Dense  grid:    10779 G-vectors     FFT dimensions: (  27,  27,  27)

     Smooth grid:     7497 G-vectors     FFT dimensions: (  25,  25,  25)

     Estimated max dynamical RAM per process >      16.74 MB

     Initial potential from superposition of free atoms

     starting charge    5.99542, renormalised to    6.00000
     Starting wfcs are    8 randomized atomic wfcs
     Checking if some PAW data can be deallocated... 

     total cpu time spent up to now is        0.5 secs

     Self-consistent Calculation

     iteration #  1     ecut=    25.00 Ry     beta= 0.10
     Davidson diagonalization with overlap
     ethr =  1.00E-02,  avg # of iterations =  2.5

     Threshold (ethr) on eigenvalues was too large:
     Diagonalizing with lowered threshold

     Davidson diagonalization with overlap
     ethr =  1.63E-04,  avg # of iterations =  2.0

     total cpu time spent up to now is        0.8 secs

     total energy              =     -78.83974429 Ry
     Harris-Foulkes estimate   =     -78.84007762 Ry
     estimated scf accuracy    <       0.00943225 Ry

     iteration #  2     ecut=    25.00 Ry     beta= 0.10
     Davidson diagonalization with overlap
     ethr =  1.57E-04,  avg # of iterations =  1.0

     total cpu time spent up to now is        0.9 secs

     total energy              =     -78.83721712 Ry
     Harris-Foulkes estimate   =     -78.83979106 Ry
     estimated scf accuracy    <       0.00824938 Ry

     iteration #  3     ecut=    25.00 Ry     beta= 0.10
     Davidson diagonalization with overlap
     ethr =  1.37E-04,  avg # of iterations =  1.0

     total cpu time spent up to now is        1.1 secs

     total energy              =     -78.83757529 Ry
     Harris-Foulkes estimate   =     -78.83766913 Ry
     estimated scf accuracy    <       0.00004651 Ry

     iteration #  4     ecut=    25.00 Ry     beta= 0.10
     Davidson diagonalization with overlap
     ethr =  7.75E-07,  avg # of iterations =  3.1

     total cpu time spent up to now is        1.2 secs

     total energy              =     -78.83757076 Ry
     Harris-Foulkes estimate   =     -78.83763030 Ry
     estimated scf accuracy    <       0.00002305 Ry

     iteration #  5     ecut=    25.00 Ry     beta= 0.10
     Davidson diagonalization with overlap
     ethr =  3.84E-07,  avg # of iterations =  1.3

     total cpu time spent up to now is        1.4 secs

     total energy              =     -78.83755886 Ry
     Harris-Foulkes estimate   =     -78.83757293 Ry
     estimated scf accuracy    <       0.00002568 Ry

     iteration #  6     ecut=    25.00 Ry     beta= 0.10
     Davidson diagonalization with overlap
     ethr =  3.84E-07,  avg # of iterations =  1.7

     total cpu time spent up to now is        1.5 secs

     End of self-consistent calculation

          k = 0.1667 0.1667 0.1667 (   943 PWs)   bands (ev):

    -4.1132   0.6083   2.3556   2.3580   6.3581   6.4129   7.7611

          k = 0.1667 0.1667-0.5000 (   926 PWs)   bands (ev):

    -2.2073  -2.2003   3.2710   3.2786   4.2252   4.2322   8.0592

          k = 0.1667-0.5000-0.5000 (   944 PWs)   bands (ev):

    -0.8894  -0.8837   0.5473   0.5532   5.2122   5.2191   6.2053

          k =-0.5000-0.5000-0.5000 (   968 PWs)   bands (ev):

     0.1606   0.1658   2.4570   2.4596   2.4622   2.4665   2.4679

          k =-0.1667-0.1667 0.1667 (   943 PWs)   bands (ev):

    -4.1132   0.6080   2.3561   2.3580   6.3577   6.4125   7.7612

          k =-0.1667 0.1667-0.1667 (   943 PWs)   bands (ev):

    -4.1132   0.6082   2.3558   2.3580   6.3576   6.4133   7.7604

          k = 0.1667-0.1667-0.1667 (   943 PWs)   bands (ev):

    -4.1131   0.6071   2.3578   2.3581   6.3554   6.4115   7.7628

          k =-0.1667 0.1667 0.5000 (   926 PWs)   bands (ev):

    -2.2073  -2.2002   3.2701   3.2775   4.2264   4.2339   8.0563

          k =-0.5000-0.1667 0.1667 (   926 PWs)   bands (ev):

    -2.2052  -2.2023   3.2737   3.2755   4.2267   4.2312   8.0591

          k = 0.5000-0.1667-0.1667 (   926 PWs)   bands (ev):

    -2.2052  -2.2023   3.2725   3.2750   4.2282   4.2321   8.0584

          k =-0.1667-0.5000 0.1667 (   926 PWs)   bands (ev):

    -2.2046  -2.2030   3.2721   3.2755   4.2288   4.2316   8.0583

          k =-0.1667 0.5000-0.1667 (   926 PWs)   bands (ev):

    -2.2046  -2.2030   3.2733   3.2771   4.2266   4.2299   8.0596

          k =-0.5000 0.1667 0.5000 (   944 PWs)   bands (ev):

    -0.8890  -0.8838   0.5464   0.5535   5.2134   5.2191   6.2045

          k =-0.5000 0.5000 0.1667 (   944 PWs)   bands (ev):

    -0.8875  -0.8855   0.5493   0.5510   5.2146   5.2171   6.2057

     the Fermi energy is     2.4992 ev

!    total energy              =     -78.83755856 Ry
     Harris-Foulkes estimate   =     -78.83756132 Ry
     estimated scf accuracy    <       0.00000070 Ry

     total all-electron energy =      -971.123120 Ry

     The total energy is the sum of the following terms:

     one-electron contribution =       3.58325186 Ry
     hartree contribution      =       0.09884010 Ry
     xc contribution           =      -4.62388581 Ry
     ewald contribution        =      -8.57955219 Ry
     one-center paw contrib.   =     -69.31330385 Ry
     smearing contrib. (-TS)   =      -0.00290867 Ry

     convergence has been achieved in   6 iterations

     Forces acting on atoms (cartesian axes, Ry/au):

     atom    1 type  1   force =    -0.00058593    0.00215280    0.00071180
     atom    2 type  1   force =     0.00058593   -0.00215280   -0.00071180

     Total force =     0.003312     Total SCF correction =     0.000289


     Computing stress (Cartesian axis) and pressure

          total   stress  (Ry/bohr**3)                   (kbar)     P= -100.88
  -0.00068267   0.00000451   0.00000599       -100.42      0.66      0.88
   0.00000451  -0.00068958  -0.00000350          0.66   -101.44     -0.51
   0.00000599  -0.00000350  -0.00068509          0.88     -0.51   -100.78


     Writing output data file VjnZaKUxotwvsVHT.save/

     init_run     :      0.23s CPU      0.23s WALL (       1 calls)
     electrons    :      1.00s CPU      1.00s WALL (       1 calls)
     forces       :      0.03s CPU      0.03s WALL (       1 calls)
     stress       :      0.08s CPU      0.08s WALL (       1 calls)

     Called by init_run:
     wfcinit      :      0.04s CPU      0.04s WALL (       1 calls)
     potinit      :      0.07s CPU      0.08s WALL (       1 calls)
     hinit0       :      0.11s CPU      0.11s WALL (       1 calls)

     Called by electrons:
     c_bands      :      0.45s CPU      0.46s WALL (       7 calls)
     sum_band     :      0.11s CPU      0.11s WALL (       7 calls)
     v_of_rho     :      0.06s CPU      0.06s WALL (       7 calls)
     newd         :      0.03s CPU      0.03s WALL (       7 calls)
     PAW_pot      :      0.41s CPU      0.41s WALL (       7 calls)
     mix_rho      :      0.00s CPU      0.00s WALL (       7 calls)

     Called by c_bands:
     init_us_2    :      0.03s CPU      0.03s WALL (     238 calls)
     cegterg      :      0.42s CPU      0.43s WALL (      98 calls)

     Called by sum_band:
     sum_band:bec :      0.00s CPU      0.00s WALL (      98 calls)
     addusdens    :      0.03s CPU      0.03s WALL (       7 calls)

     Called by *egterg:
     h_psi        :      0.34s CPU      0.35s WALL (     289 calls)
     s_psi        :      0.02s CPU      0.02s WALL (     289 calls)
     g_psi        :      0.00s CPU      0.00s WALL (     177 calls)
     cdiaghg      :      0.01s CPU      0.01s WALL (     261 calls)

     Called by h_psi:
     h_psi:pot    :      0.34s CPU      0.34s WALL (     289 calls)
     h_psi:calbec :      0.03s CPU      0.03s WALL (     289 calls)
     vloc_psi     :      0.29s CPU      0.29s WALL (     289 calls)
     add_vuspsi   :      0.02s CPU      0.02s WALL (     289 calls)

     General routines
     calbec       :      0.05s CPU      0.05s WALL (     457 calls)
     fft          :      0.03s CPU      0.03s WALL (     115 calls)
     ffts         :      0.00s CPU      0.00s WALL (      14 calls)
     fftw         :      0.31s CPU      0.31s WALL (    4244 calls)
     interpolate  :      0.00s CPU      0.00s WALL (       7 calls)

     Parallel routines

     PWSCF        :      1.63s CPU      1.65s WALL


   This run was terminated on:  17:40:40  19Apr2020            

=------------------------------------------------------------------------------=
   JOB DONE.
=------------------------------------------------------------------------------=
