
     Program PWSCF v.6.4.1 starts on 20Apr2020 at  5:21:24 

     This program is part of the open-source Quantum ESPRESSO suite
     for quantum simulation of materials; please cite
         "P. Giannozzi et al., J. Phys.:Condens. Matter 21 395502 (2009);
         "P. Giannozzi et al., J. Phys.:Condens. Matter 29 465901 (2017);
          URL http://www.quantum-espresso.org", 
     in publications or presentations arising from this work. More details at
     http://www.quantum-espresso.org/quote

     Parallel version (MPI), running on     1 processors

     MPI processes distributed on     1 nodes
     Reading input from wd/configs/2/config_0004.in
Warning: card &IONS ignored
Warning: card ION_DYNAMICS = 'BFGS', ignored
Warning: card / ignored
Warning: card &CELL ignored
Warning: card CELL_DYNAMICS = 'BFGS', ignored
Warning: card CELL_FACTOR = 2.0, ignored
Warning: card PRESS = 0.0, ignored
Warning: card / ignored

     Current dimensions of program PWSCF are:
     Max number of different atomic species (ntypx) = 10
     Max number of k-points (npk) =  40000
     Max angular momentum in pseudopotentials (lmaxx) =  3
               file Al.pbe-nl-kjpaw_psl.1.0.0.UPF: wavefunction(s)  3S 3P renormalized

     Subspace diagonalization in iterative solution of the eigenvalue problem:
     a serial algorithm will be used


     G-vector sticks info
     --------------------
     sticks:   dense  smooth     PW     G-vecs:    dense   smooth      PW
     Sum         593     465    145                10635     7497    1365



     bravais-lattice index     =            0
     lattice parameter (alat)  =       7.6296  a.u.
     unit-cell volume          =     444.1216 (a.u.)^3
     number of atoms/cell      =            2
     number of atomic types    =            1
     number of electrons       =         6.00
     number of Kohn-Sham states=            7
     kinetic-energy cutoff     =      25.0000  Ry
     charge density cutoff     =     126.0000  Ry
     convergence threshold     =      1.0E-06
     mixing beta               =       0.1000
     number of iterations used =           10  TF        mixing
     Exchange-correlation      = SLA PW PBX PBC ( 1  4  3  4 0 0)

     celldm(1)=   7.629580  celldm(2)=   0.000000  celldm(3)=   0.000000
     celldm(4)=   0.000000  celldm(5)=   0.000000  celldm(6)=   0.000000

     crystal axes: (cart. coord. in units of alat)
               a(1) = (   1.000000   0.000000   0.000000 )  
               a(2) = (   0.000000   1.000000   0.000000 )  
               a(3) = (   0.000000   0.000000   1.000000 )  

     reciprocal axes: (cart. coord. in units 2 pi/alat)
               b(1) = (  1.000000  0.000000  0.000000 )  
               b(2) = (  0.000000  1.000000  0.000000 )  
               b(3) = (  0.000000  0.000000  1.000000 )  


     PseudoPot. # 1 for Al read from file:
     /opt/pp/Al.pbe-nl-kjpaw_psl.1.0.0.UPF
     MD5 check sum: 1b67f78b73fe58c7924490f171ce8a1e
     Pseudo is Projector augmented-wave + core cor, Zval =  3.0
     Generated using "atomic" code by A. Dal Corso v.6.3
     Shape of augmentation charge: PSQ
     Using radial grid of 1135 points,  4 beta functions with: 
                l(1) =   0
                l(2) =   0
                l(3) =   1
                l(4) =   1
     Q(r) pseudized with 0 coefficients 


     atomic species   valence    mass     pseudopotential
        Al             3.00    26.98200     Al( 1.00)

     No symmetry found



   Cartesian axes

     site n.     atom                  positions (alat units)
         1           Al  tau(   1) = (  -0.0014415  -0.0012726  -0.0010383  )
         2           Al  tau(   2) = (   0.4990080   0.4979288   0.4989708  )

     number of k points=    14  Marzari-Vanderbilt smearing, width (Ry)=  0.0200
                       cart. coord. in units 2pi/alat
        k(    1) = (   0.1666667   0.1666667   0.1666667), wk =   0.1481481
        k(    2) = (   0.1666667   0.1666667  -0.5000000), wk =   0.1481481
        k(    3) = (   0.1666667  -0.5000000  -0.5000000), wk =   0.1481481
        k(    4) = (  -0.5000000  -0.5000000  -0.5000000), wk =   0.0740741
        k(    5) = (  -0.1666667  -0.1666667   0.1666667), wk =   0.1481481
        k(    6) = (  -0.1666667   0.1666667  -0.1666667), wk =   0.1481481
        k(    7) = (   0.1666667  -0.1666667  -0.1666667), wk =   0.1481481
        k(    8) = (  -0.1666667   0.1666667   0.5000000), wk =   0.1481481
        k(    9) = (  -0.5000000  -0.1666667   0.1666667), wk =   0.1481481
        k(   10) = (   0.5000000  -0.1666667  -0.1666667), wk =   0.1481481
        k(   11) = (  -0.1666667  -0.5000000   0.1666667), wk =   0.1481481
        k(   12) = (  -0.1666667   0.5000000  -0.1666667), wk =   0.1481481
        k(   13) = (  -0.5000000   0.1666667   0.5000000), wk =   0.1481481
        k(   14) = (  -0.5000000   0.5000000   0.1666667), wk =   0.1481481

     Dense  grid:    10635 G-vectors     FFT dimensions: (  27,  27,  27)

     Smooth grid:     7497 G-vectors     FFT dimensions: (  25,  25,  25)

     Estimated max dynamical RAM per process >      16.56 MB

     Initial potential from superposition of free atoms

     starting charge    5.99542, renormalised to    6.00000
     Starting wfcs are    8 randomized atomic wfcs
     Checking if some PAW data can be deallocated... 

     total cpu time spent up to now is        0.7 secs

     Self-consistent Calculation

     iteration #  1     ecut=    25.00 Ry     beta= 0.10
     Davidson diagonalization with overlap
     ethr =  1.00E-02,  avg # of iterations =  2.5

     Threshold (ethr) on eigenvalues was too large:
     Diagonalizing with lowered threshold

     Davidson diagonalization with overlap
     ethr =  1.63E-04,  avg # of iterations =  2.0

     total cpu time spent up to now is        1.1 secs

     total energy              =     -78.84041463 Ry
     Harris-Foulkes estimate   =     -78.84074860 Ry
     estimated scf accuracy    <       0.00943506 Ry

     iteration #  2     ecut=    25.00 Ry     beta= 0.10
     Davidson diagonalization with overlap
     ethr =  1.57E-04,  avg # of iterations =  1.0

     total cpu time spent up to now is        1.2 secs

     total energy              =     -78.83788723 Ry
     Harris-Foulkes estimate   =     -78.84045996 Ry
     estimated scf accuracy    <       0.00824742 Ry

     iteration #  3     ecut=    25.00 Ry     beta= 0.10
     Davidson diagonalization with overlap
     ethr =  1.37E-04,  avg # of iterations =  1.0

     total cpu time spent up to now is        1.4 secs

     total energy              =     -78.83824653 Ry
     Harris-Foulkes estimate   =     -78.83833236 Ry
     estimated scf accuracy    <       0.00004321 Ry

     iteration #  4     ecut=    25.00 Ry     beta= 0.10
     Davidson diagonalization with overlap
     ethr =  7.20E-07,  avg # of iterations =  3.1

     total cpu time spent up to now is        1.7 secs

     total energy              =     -78.83824143 Ry
     Harris-Foulkes estimate   =     -78.83830065 Ry
     estimated scf accuracy    <       0.00002195 Ry

     iteration #  5     ecut=    25.00 Ry     beta= 0.10
     Davidson diagonalization with overlap
     ethr =  3.66E-07,  avg # of iterations =  1.0

     total cpu time spent up to now is        1.9 secs

     total energy              =     -78.83822502 Ry
     Harris-Foulkes estimate   =     -78.83824309 Ry
     estimated scf accuracy    <       0.00001974 Ry

     iteration #  6     ecut=    25.00 Ry     beta= 0.10
     Davidson diagonalization with overlap
     ethr =  3.29E-07,  avg # of iterations =  2.0

     total cpu time spent up to now is        2.1 secs

     End of self-consistent calculation

          k = 0.1667 0.1667 0.1667 (   943 PWs)   bands (ev):

    -4.1083   0.6265   2.3664   2.3687   6.3815   6.4362   7.7821

          k = 0.1667 0.1667-0.5000 (   926 PWs)   bands (ev):

    -2.1988  -2.1917   3.2878   3.2954   4.2390   4.2460   8.0844

          k = 0.1667-0.5000-0.5000 (   944 PWs)   bands (ev):

    -0.8757  -0.8700   0.5549   0.5608   5.2305   5.2374   6.2221

          k =-0.5000-0.5000-0.5000 (   968 PWs)   bands (ev):

     0.1793   0.1844   2.4675   2.4701   2.4727   2.4770   2.4783

          k =-0.1667-0.1667 0.1667 (   943 PWs)   bands (ev):

    -4.1083   0.6262   2.3669   2.3687   6.3811   6.4357   7.7822

          k =-0.1667 0.1667-0.1667 (   943 PWs)   bands (ev):

    -4.1083   0.6264   2.3665   2.3687   6.3809   6.4366   7.7815

          k = 0.1667-0.1667-0.1667 (   943 PWs)   bands (ev):

    -4.1082   0.6253   2.3685   2.3688   6.3788   6.4348   7.7838

          k =-0.1667 0.1667 0.5000 (   926 PWs)   bands (ev):

    -2.1988  -2.1917   3.2869   3.2942   4.2402   4.2477   8.0814

          k =-0.5000-0.1667 0.1667 (   926 PWs)   bands (ev):

    -2.1966  -2.1938   3.2905   3.2922   4.2405   4.2450   8.0843

          k = 0.5000-0.1667-0.1667 (   926 PWs)   bands (ev):

    -2.1966  -2.1938   3.2893   3.2917   4.2421   4.2459   8.0836

          k =-0.1667-0.5000 0.1667 (   926 PWs)   bands (ev):

    -2.1960  -2.1945   3.2889   3.2923   4.2427   4.2454   8.0834

          k =-0.1667 0.5000-0.1667 (   926 PWs)   bands (ev):

    -2.1960  -2.1945   3.2901   3.2938   4.2404   4.2437   8.0848

          k =-0.5000 0.1667 0.5000 (   944 PWs)   bands (ev):

    -0.8752  -0.8701   0.5540   0.5610   5.2318   5.2373   6.2213

          k =-0.5000 0.5000 0.1667 (   944 PWs)   bands (ev):

    -0.8737  -0.8718   0.5569   0.5585   5.2329   5.2354   6.2225

     the Fermi energy is     2.5099 ev

!    total energy              =     -78.83822528 Ry
     Harris-Foulkes estimate   =     -78.83822778 Ry
     estimated scf accuracy    <       0.00000063 Ry

     total all-electron energy =      -971.123786 Ry

     The total energy is the sum of the following terms:

     one-electron contribution =       3.59078674 Ry
     hartree contribution      =       0.09817784 Ry
     xc contribution           =      -4.62513144 Ry
     ewald contribution        =      -8.58581622 Ry
     one-center paw contrib.   =     -69.31333193 Ry
     smearing contrib. (-TS)   =      -0.00291027 Ry

     convergence has been achieved in   6 iterations

     Forces acting on atoms (cartesian axes, Ry/au):

     atom    1 type  1   force =    -0.00059346    0.00216265    0.00071675
     atom    2 type  1   force =     0.00059346   -0.00216265   -0.00071675

     Total force =     0.003330     Total SCF correction =     0.000267


     Computing stress (Cartesian axis) and pressure

          total   stress  (Ry/bohr**3)                   (kbar)     P= -101.00
  -0.00068347   0.00000449   0.00000603       -100.54      0.66      0.89
   0.00000449  -0.00069038  -0.00000351          0.66   -101.56     -0.52
   0.00000603  -0.00000351  -0.00068592          0.89     -0.52   -100.90


     Writing output data file ZjxegaoGjeaDBVpJ.save/

     init_run     :      0.25s CPU      0.31s WALL (       1 calls)
     electrons    :      1.33s CPU      1.34s WALL (       1 calls)
     forces       :      0.04s CPU      0.04s WALL (       1 calls)
     stress       :      0.10s CPU      0.10s WALL (       1 calls)

     Called by init_run:
     wfcinit      :      0.03s CPU      0.04s WALL (       1 calls)
     potinit      :      0.09s CPU      0.10s WALL (       1 calls)
     hinit0       :      0.12s CPU      0.15s WALL (       1 calls)

     Called by electrons:
     c_bands      :      0.62s CPU      0.62s WALL (       7 calls)
     sum_band     :      0.15s CPU      0.15s WALL (       7 calls)
     v_of_rho     :      0.07s CPU      0.07s WALL (       7 calls)
     newd         :      0.04s CPU      0.04s WALL (       7 calls)
     PAW_pot      :      0.53s CPU      0.54s WALL (       7 calls)
     mix_rho      :      0.01s CPU      0.01s WALL (       7 calls)

     Called by c_bands:
     init_us_2    :      0.03s CPU      0.04s WALL (     238 calls)
     cegterg      :      0.58s CPU      0.58s WALL (      98 calls)

     Called by sum_band:
     sum_band:bec :      0.00s CPU      0.00s WALL (      98 calls)
     addusdens    :      0.04s CPU      0.04s WALL (       7 calls)

     Called by *egterg:
     h_psi        :      0.44s CPU      0.45s WALL (     289 calls)
     s_psi        :      0.03s CPU      0.03s WALL (     289 calls)
     g_psi        :      0.00s CPU      0.00s WALL (     177 calls)
     cdiaghg      :      0.02s CPU      0.02s WALL (     261 calls)

     Called by h_psi:
     h_psi:pot    :      0.44s CPU      0.44s WALL (     289 calls)
     h_psi:calbec :      0.04s CPU      0.04s WALL (     289 calls)
     vloc_psi     :      0.36s CPU      0.37s WALL (     289 calls)
     add_vuspsi   :      0.03s CPU      0.04s WALL (     289 calls)

     General routines
     calbec       :      0.06s CPU      0.06s WALL (     457 calls)
     fft          :      0.04s CPU      0.06s WALL (     115 calls)
     ffts         :      0.00s CPU      0.00s WALL (      14 calls)
     fftw         :      0.38s CPU      0.38s WALL (    4266 calls)
     interpolate  :      0.00s CPU      0.00s WALL (       7 calls)

     Parallel routines

     PWSCF        :      2.07s CPU      2.22s WALL


   This run was terminated on:   5:21:27  20Apr2020            

=------------------------------------------------------------------------------=
   JOB DONE.
=------------------------------------------------------------------------------=
