
     Program PWSCF v.6.4.1 starts on 18Mar2020 at 17:22:36 

     This program is part of the open-source Quantum ESPRESSO suite
     for quantum simulation of materials; please cite
         "P. Giannozzi et al., J. Phys.:Condens. Matter 21 395502 (2009);
         "P. Giannozzi et al., J. Phys.:Condens. Matter 29 465901 (2017);
          URL http://www.quantum-espresso.org", 
     in publications or presentations arising from this work. More details at
     http://www.quantum-espresso.org/quote

     Parallel version (MPI), running on     1 processors

     MPI processes distributed on     1 nodes
     Reading input from wd/configs/2/config_0001.in
Warning: card &IONS ignored
Warning: card ION_DYNAMICS = 'BFGS', ignored
Warning: card / ignored
Warning: card &CELL ignored
Warning: card CELL_DYNAMICS = 'BFGS', ignored
Warning: card CELL_FACTOR = 2.0, ignored
Warning: card PRESS = 0.0, ignored
Warning: card / ignored

     Current dimensions of program PWSCF are:
     Max number of different atomic species (ntypx) = 10
     Max number of k-points (npk) =  40000
     Max angular momentum in pseudopotentials (lmaxx) =  3
               file Al.pbe-nl-kjpaw_psl.1.0.0.UPF: wavefunction(s)  3S 3P renormalized

     Subspace diagonalization in iterative solution of the eigenvalue problem:
     a serial algorithm will be used

     Found symmetry operation: I + (  0.2500  0.2500  0.0000)
     This is a supercell, fractional translations are disabled
     Message from routine setup:
     DEPRECATED: symmetry with ibrav=0, use correct ibrav instead

     G-vector sticks info
     --------------------
     sticks:   dense  smooth     PW     G-vecs:    dense   smooth      PW
     Sum         593     465    145                10779     7497    1365



     bravais-lattice index     =            0
     lattice parameter (alat)  =       7.6371  a.u.
     unit-cell volume          =     445.4281 (a.u.)^3
     number of atoms/cell      =           32
     number of atomic types    =            1
     number of electrons       =        96.00
     number of Kohn-Sham states=           58
     kinetic-energy cutoff     =      25.0000  Ry
     charge density cutoff     =     126.0000  Ry
     convergence threshold     =      1.0E-06
     mixing beta               =       0.1000
     number of iterations used =           10  TF        mixing
     Exchange-correlation      = SLA PW PBX PBC ( 1  4  3  4 0 0)

     celldm(1)=   7.637054  celldm(2)=   0.000000  celldm(3)=   0.000000
     celldm(4)=   0.000000  celldm(5)=   0.000000  celldm(6)=   0.000000

     crystal axes: (cart. coord. in units of alat)
               a(1) = (   1.000000   0.000000   0.000000 )  
               a(2) = (   0.000000   1.000000   0.000000 )  
               a(3) = (   0.000000   0.000000   1.000000 )  

     reciprocal axes: (cart. coord. in units 2 pi/alat)
               b(1) = (  1.000000  0.000000  0.000000 )  
               b(2) = (  0.000000  1.000000  0.000000 )  
               b(3) = (  0.000000  0.000000  1.000000 )  


     PseudoPot. # 1 for Al read from file:
     /opt/pp/Al.pbe-nl-kjpaw_psl.1.0.0.UPF
     MD5 check sum: 1b67f78b73fe58c7924490f171ce8a1e
     Pseudo is Projector augmented-wave + core cor, Zval =  3.0
     Generated using "atomic" code by A. Dal Corso v.6.3
     Shape of augmentation charge: PSQ
     Using radial grid of 1135 points,  4 beta functions with: 
                l(1) =   0
                l(2) =   0
                l(3) =   1
                l(4) =   1
     Q(r) pseudized with 0 coefficients 


     atomic species   valence    mass     pseudopotential
        Al             3.00    26.98200     Al( 1.00)

     48 Sym. Ops., with inversion, found



   Cartesian axes

     site n.     atom                  positions (alat units)
         1           Al  tau(   1) = (   0.0000000   0.0000000   0.0000000  )
         2           Al  tau(   2) = (   0.2500000   0.2500000   0.0000000  )
         3           Al  tau(   3) = (   0.2500000   0.0000000   0.2500000  )
         4           Al  tau(   4) = (   0.0000000   0.2500000   0.2500000  )
         5           Al  tau(   5) = (   0.0000000   0.0000000   0.5000000  )
         6           Al  tau(   6) = (   0.2500000   0.2500000   0.5000000  )
         7           Al  tau(   7) = (   0.2500000   0.0000000   0.7500000  )
         8           Al  tau(   8) = (   0.0000000   0.2500000   0.7500000  )
         9           Al  tau(   9) = (   0.0000000   0.5000000   0.0000000  )
        10           Al  tau(  10) = (   0.2500000   0.7500000   0.0000000  )
        11           Al  tau(  11) = (   0.2500000   0.5000000   0.2500000  )
        12           Al  tau(  12) = (   0.0000000   0.7500000   0.2500000  )
        13           Al  tau(  13) = (   0.0000000   0.5000000   0.5000000  )
        14           Al  tau(  14) = (   0.2500000   0.7500000   0.5000000  )
        15           Al  tau(  15) = (   0.2500000   0.5000000   0.7500000  )
        16           Al  tau(  16) = (   0.0000000   0.7500000   0.7500000  )
        17           Al  tau(  17) = (   0.5000000   0.0000000   0.0000000  )
        18           Al  tau(  18) = (   0.7500000   0.2500000   0.0000000  )
        19           Al  tau(  19) = (   0.7500000   0.0000000   0.2500000  )
        20           Al  tau(  20) = (   0.5000000   0.2500000   0.2500000  )
        21           Al  tau(  21) = (   0.5000000   0.0000000   0.5000000  )
        22           Al  tau(  22) = (   0.7500000   0.2500000   0.5000000  )
        23           Al  tau(  23) = (   0.7500000   0.0000000   0.7500000  )
        24           Al  tau(  24) = (   0.5000000   0.2500000   0.7500000  )
        25           Al  tau(  25) = (   0.5000000   0.5000000   0.0000000  )
        26           Al  tau(  26) = (   0.7500000   0.7500000   0.0000000  )
        27           Al  tau(  27) = (   0.7500000   0.5000000   0.2500000  )
        28           Al  tau(  28) = (   0.5000000   0.7500000   0.2500000  )
        29           Al  tau(  29) = (   0.5000000   0.5000000   0.5000000  )
        30           Al  tau(  30) = (   0.7500000   0.7500000   0.5000000  )
        31           Al  tau(  31) = (   0.7500000   0.5000000   0.7500000  )
        32           Al  tau(  32) = (   0.5000000   0.7500000   0.7500000  )

     number of k points=     4  Marzari-Vanderbilt smearing, width (Ry)=  0.0200
                       cart. coord. in units 2pi/alat
        k(    1) = (   0.1666667   0.1666667   0.1666667), wk =   0.5925926
        k(    2) = (   0.1666667   0.1666667  -0.5000000), wk =   0.8888889
        k(    3) = (   0.1666667  -0.5000000  -0.5000000), wk =   0.4444444
        k(    4) = (  -0.5000000  -0.5000000  -0.5000000), wk =   0.0740741

     Dense  grid:    10779 G-vectors     FFT dimensions: (  27,  27,  27)

     Smooth grid:     7497 G-vectors     FFT dimensions: (  25,  25,  25)

     Estimated max dynamical RAM per process >      37.25 MB

     Initial potential from superposition of free atoms

     starting charge   95.92671, renormalised to   96.00000
     Starting wfcs are  128 randomized atomic wfcs
     Checking if some PAW data can be deallocated... 

     total cpu time spent up to now is        2.2 secs

     Self-consistent Calculation

     iteration #  1     ecut=    25.00 Ry     beta= 0.10
     Davidson diagonalization with overlap
     ethr =  1.00E-02,  avg # of iterations =  5.0

     total cpu time spent up to now is        5.0 secs

     total energy              =   -1093.68963204 Ry
     Harris-Foulkes estimate   =   -1095.35571990 Ry
     estimated scf accuracy    <       2.17819017 Ry

     iteration #  2     ecut=    25.00 Ry     beta= 0.10
     Davidson diagonalization with overlap
     ethr =  2.27E-03,  avg # of iterations =  1.5

     total cpu time spent up to now is        6.6 secs

     total energy              =   -1088.07321661 Ry
     Harris-Foulkes estimate   =   -1093.76207993 Ry
     estimated scf accuracy    <       1.83139862 Ry

     iteration #  3     ecut=    25.00 Ry     beta= 0.10
     Davidson diagonalization with overlap
     ethr =  1.91E-03,  avg # of iterations =  3.5

     total cpu time spent up to now is        8.9 secs

     total energy              =   -1089.58271427 Ry
     Harris-Foulkes estimate   =   -1089.19886756 Ry
     estimated scf accuracy    <       0.28293608 Ry

     iteration #  4     ecut=    25.00 Ry     beta= 0.10
     Davidson diagonalization with overlap
     ethr =  2.95E-04,  avg # of iterations =  3.2

     total cpu time spent up to now is       11.1 secs

     total energy              =   -1089.05561164 Ry
     Harris-Foulkes estimate   =   -1089.79576787 Ry
     estimated scf accuracy    <       0.36798470 Ry

     iteration #  5     ecut=    25.00 Ry     beta= 0.10
     Davidson diagonalization with overlap
     ethr =  2.95E-04,  avg # of iterations =  2.0

     total cpu time spent up to now is       13.1 secs

     total energy              =   -1089.21106508 Ry
     Harris-Foulkes estimate   =   -1089.21881751 Ry
     estimated scf accuracy    <       0.00018142 Ry

     iteration #  6     ecut=    25.00 Ry     beta= 0.10
     Davidson diagonalization with overlap
     ethr =  1.89E-07,  avg # of iterations = 10.5

     total cpu time spent up to now is       16.6 secs

     total energy              =   -1089.17964869 Ry
     Harris-Foulkes estimate   =   -1089.21554393 Ry
     estimated scf accuracy    <       0.00016785 Ry

     iteration #  7     ecut=    25.00 Ry     beta= 0.10
     Davidson diagonalization with overlap
     ethr =  1.75E-07,  avg # of iterations =  4.5

     total cpu time spent up to now is       19.5 secs

     total energy              =   -1089.18193884 Ry
     Harris-Foulkes estimate   =   -1089.18331667 Ry
     estimated scf accuracy    <       0.00235292 Ry

     iteration #  8     ecut=    25.00 Ry     beta= 0.10
     Davidson diagonalization with overlap
     ethr =  1.75E-07,  avg # of iterations =  4.0

     total cpu time spent up to now is       21.8 secs

     total energy              =   -1089.18198350 Ry
     Harris-Foulkes estimate   =   -1089.18209740 Ry
     estimated scf accuracy    <       0.00034140 Ry

     iteration #  9     ecut=    25.00 Ry     beta= 0.10
     Davidson diagonalization with overlap
     ethr =  1.75E-07,  avg # of iterations =  2.0

     total cpu time spent up to now is       23.8 secs

     total energy              =   -1089.18198433 Ry
     Harris-Foulkes estimate   =   -1089.18203085 Ry
     estimated scf accuracy    <       0.00021253 Ry

     iteration # 10     ecut=    25.00 Ry     beta= 0.10
     Davidson diagonalization with overlap
     ethr =  1.75E-07,  avg # of iterations =  2.0

     total cpu time spent up to now is       25.5 secs

     total energy              =   -1089.18198719 Ry
     Harris-Foulkes estimate   =   -1089.18200561 Ry
     estimated scf accuracy    <       0.00001089 Ry

     iteration # 11     ecut=    25.00 Ry     beta= 0.10
     Davidson diagonalization with overlap
     ethr =  1.13E-08,  avg # of iterations =  2.5

     total cpu time spent up to now is       27.4 secs

     End of self-consistent calculation

          k = 0.1667 0.1667 0.1667 (   943 PWs)   bands (ev):

    40.3799  45.0273  45.0273  45.0273  47.1638  47.1638  47.1638  47.4079
    47.4079  47.4079  48.8481  48.8481  48.8481  51.0529  51.0529  51.0529
    51.0529  51.0529  51.0530  51.1054  51.1054  51.1054  51.1054  51.1055
    51.1055  51.1575  52.8135  52.8135  52.8135  53.3371  53.3371  53.3371
    56.1602  56.1602  56.1602  58.2742  58.8832  58.8832  58.8832  60.6561
    60.6561  60.6561  61.0940  61.0940  61.0940  61.0940  61.0940  61.0940
    62.2160  62.2160  62.2160  62.2161  62.2161  62.2161  63.3969  63.3969
    63.3969  63.3970

          k = 0.1667 0.1667-0.5000 (   926 PWs)   bands (ev):

    42.2062  42.2064  46.4885  46.4885  46.4889  46.4889  47.9243  47.9251
    48.8965  48.8965  48.8969  48.8970  48.9615  48.9618  48.9627  48.9631
    49.6956  49.6962  51.8211  51.8211  51.8220  51.8220  52.1055  52.1061
    52.1064  52.1070  52.4539  52.4539  52.4546  52.4546  54.1307  54.1314
    56.5059  56.5066  58.5614  58.5620  58.5625  58.5631  59.7289  59.7289
    59.7293  59.7293  60.0538  60.0539  60.0540  60.0541  60.8846  60.8847
    60.8847  60.8848  60.9596  60.9599  61.0666  61.0671  63.5760  63.5760
    63.5763  63.5764

          k = 0.1667-0.5000-0.5000 (   944 PWs)   bands (ev):

    43.8555  43.8558  43.8558  43.8561  47.6645  47.6649  47.6649  47.6654
    49.6091  49.6091  49.6096  49.6096  49.6101  49.6101  49.6105  49.6105
    50.1405  50.1410  50.1410  50.1416  50.7175  50.7180  50.7180  50.7184
    53.3562  53.3562  53.3569  53.3569  53.3571  53.3571  53.3578  53.3578
    57.6937  57.6938  57.6942  57.6942  57.6944  57.6944  57.6946  57.6946
    59.6024  59.6028  59.6028  59.6030  60.8948  60.8948  60.8948  60.8948
    60.8952  60.8952  60.8953  60.8953  60.9325  60.9331  60.9331  60.9334
    64.1115  64.1118

          k =-0.5000-0.5000-0.5000 (   968 PWs)   bands (ev):

    45.2789  45.2793  45.2793  45.2793  45.2796  45.2796  45.2796  45.2800
    51.2390  51.2390  51.2390  51.2390  51.2390  51.2401  51.2401  51.2401
    51.2403  51.2405  51.2405  51.2405  51.2408  51.2408  51.2408  51.2409
    51.2411  51.2411  51.2411  51.2423  51.2423  51.2423  51.2423  51.2423
    59.2591  59.2591  59.2594  59.2594  59.2594  59.2595  59.2599  59.2599
    59.2599  59.2599  59.2599  59.2599  59.2600  59.2600  59.2600  59.2600
    59.2600  59.2600  59.2601  59.2604  59.2604  59.2605  59.2605  59.2605
    67.5869  67.5872

     the Fermi energy is    60.9565 ev

!    total energy              =   -1089.18195299 Ry
     Harris-Foulkes estimate   =   -1089.18198879 Ry
     estimated scf accuracy    <       0.00000037 Ry

     total all-electron energy =    -15365.750930 Ry

     The total energy is the sum of the following terms:

     one-electron contribution =     539.96575564 Ry
     hartree contribution      =       2.08553084 Ry
     xc contribution           =    -145.80391497 Ry
     ewald contribution        =    -345.79831686 Ry
     one-center paw contrib.   =   -1139.59017961 Ry
     smearing contrib. (-TS)   =      -0.04082804 Ry

     convergence has been achieved in  11 iterations

     Forces acting on atoms (cartesian axes, Ry/au):

     atom    1 type  1   force =     0.00000000    0.00000000    0.00000000
     atom    2 type  1   force =     0.00062632    0.00062632   -0.00000000
     atom    3 type  1   force =     0.00062632    0.00000000    0.00062632
     atom    4 type  1   force =     0.00000000    0.00062632    0.00062632
     atom    5 type  1   force =     0.00000000    0.00000000    0.00000000
     atom    6 type  1   force =     0.00062983    0.00062983   -0.00000000
     atom    7 type  1   force =     0.00062632    0.00000000   -0.00062632
     atom    8 type  1   force =     0.00000000    0.00062632   -0.00062632
     atom    9 type  1   force =     0.00000000    0.00000000    0.00000000
     atom   10 type  1   force =     0.00062632   -0.00062632   -0.00000000
     atom   11 type  1   force =     0.00062983    0.00000000    0.00062983
     atom   12 type  1   force =     0.00000000   -0.00062632    0.00062632
     atom   13 type  1   force =     0.00000000    0.00000000    0.00000000
     atom   14 type  1   force =     0.00062983   -0.00062983    0.00000000
     atom   15 type  1   force =     0.00062983   -0.00000000   -0.00062983
     atom   16 type  1   force =     0.00000000   -0.00062632   -0.00062632
     atom   17 type  1   force =     0.00000000    0.00000000    0.00000000
     atom   18 type  1   force =    -0.00062632    0.00062632    0.00000000
     atom   19 type  1   force =    -0.00062632   -0.00000000    0.00062632
     atom   20 type  1   force =     0.00000000    0.00062983    0.00062983
     atom   21 type  1   force =     0.00000000    0.00000000    0.00000000
     atom   22 type  1   force =    -0.00062983    0.00062983    0.00000000
     atom   23 type  1   force =    -0.00062632   -0.00000000   -0.00062632
     atom   24 type  1   force =    -0.00000000    0.00062983   -0.00062983
     atom   25 type  1   force =     0.00000000    0.00000000    0.00000000
     atom   26 type  1   force =    -0.00062632   -0.00062632    0.00000000
     atom   27 type  1   force =    -0.00062983    0.00000000    0.00062983
     atom   28 type  1   force =     0.00000000   -0.00062983    0.00062983
     atom   29 type  1   force =     0.00000000    0.00000000    0.00000000
     atom   30 type  1   force =    -0.00062983   -0.00062983   -0.00000000
     atom   31 type  1   force =    -0.00062983    0.00000000   -0.00062983
     atom   32 type  1   force =     0.00000000   -0.00062983   -0.00062983

     Total force =     0.004351     Total SCF correction =     0.000212


     Computing stress (Cartesian axis) and pressure

          total   stress  (Ry/bohr**3)                   (kbar)     P=85229.95
   0.57938153   0.00000000   0.00000000      85229.95      0.00      0.00
   0.00000000   0.57938153   0.00000000          0.00  85229.95      0.00
   0.00000000   0.00000000   0.57938153          0.00      0.00  85229.95


     Writing output data file VjnZaKUxotwvsVHT.save/

     init_run     :      1.86s CPU      1.92s WALL (       1 calls)
     electrons    :     24.87s CPU     25.16s WALL (       1 calls)
     forces       :      0.68s CPU      0.68s WALL (       1 calls)
     stress       :      0.45s CPU      0.45s WALL (       1 calls)

     Called by init_run:
     wfcinit      :      0.65s CPU      0.65s WALL (       1 calls)
     potinit      :      0.99s CPU      1.05s WALL (       1 calls)
     hinit0       :      0.19s CPU      0.19s WALL (       1 calls)

     Called by electrons:
     c_bands      :     12.78s CPU     12.82s WALL (      11 calls)
     sum_band     :      1.06s CPU      1.07s WALL (      11 calls)
     v_of_rho     :      0.10s CPU      0.10s WALL (      12 calls)
     newd         :      0.28s CPU      0.29s WALL (      12 calls)
     PAW_pot      :     11.64s CPU     11.70s WALL (      12 calls)
     mix_rho      :      0.01s CPU      0.01s WALL (      11 calls)

     Called by c_bands:
     init_us_2    :      0.06s CPU      0.06s WALL (     100 calls)
     cegterg      :     12.64s CPU     12.68s WALL (      44 calls)

     Called by sum_band:
     sum_band:bec :      0.01s CPU      0.01s WALL (      44 calls)
     addusdens    :      0.11s CPU      0.11s WALL (      11 calls)

     Called by *egterg:
     h_psi        :      5.64s CPU      5.67s WALL (     211 calls)
     s_psi        :      1.85s CPU      1.85s WALL (     211 calls)
     g_psi        :      0.02s CPU      0.02s WALL (     163 calls)
     cdiaghg      :      2.04s CPU      2.04s WALL (     207 calls)

     Called by h_psi:
     h_psi:pot    :      5.62s CPU      5.65s WALL (     211 calls)
     h_psi:calbec :      2.29s CPU      2.30s WALL (     211 calls)
     vloc_psi     :      1.46s CPU      1.49s WALL (     211 calls)
     add_vuspsi   :      1.87s CPU      1.87s WALL (     211 calls)

     General routines
     calbec       :      3.25s CPU      3.26s WALL (     275 calls)
     fft          :      0.04s CPU      0.04s WALL (     179 calls)
     ffts         :      0.00s CPU      0.00s WALL (      23 calls)
     fftw         :      1.49s CPU      1.51s WALL (   19966 calls)
     interpolate  :      0.00s CPU      0.00s WALL (      12 calls)

     Parallel routines

     PWSCF        :     28.17s CPU     28.54s WALL


   This run was terminated on:  17:23: 5  18Mar2020            

=------------------------------------------------------------------------------=
   JOB DONE.
=------------------------------------------------------------------------------=
