
     Program PWSCF v.6.4.1 starts on 18Mar2020 at 17:23:14 

     This program is part of the open-source Quantum ESPRESSO suite
     for quantum simulation of materials; please cite
         "P. Giannozzi et al., J. Phys.:Condens. Matter 21 395502 (2009);
         "P. Giannozzi et al., J. Phys.:Condens. Matter 29 465901 (2017);
          URL http://www.quantum-espresso.org", 
     in publications or presentations arising from this work. More details at
     http://www.quantum-espresso.org/quote

     Parallel version (MPI), running on     1 processors

     MPI processes distributed on     1 nodes
     Reading input from wd/configs/3/config_0001.in
Warning: card &IONS ignored
Warning: card ION_DYNAMICS = 'BFGS', ignored
Warning: card / ignored
Warning: card &CELL ignored
Warning: card CELL_DYNAMICS = 'BFGS', ignored
Warning: card CELL_FACTOR = 2.0, ignored
Warning: card PRESS = 0.0, ignored
Warning: card / ignored

     Current dimensions of program PWSCF are:
     Max number of different atomic species (ntypx) = 10
     Max number of k-points (npk) =  40000
     Max angular momentum in pseudopotentials (lmaxx) =  3
               file Al.pbe-nl-kjpaw_psl.1.0.0.UPF: wavefunction(s)  3S 3P renormalized

     Subspace diagonalization in iterative solution of the eigenvalue problem:
     a serial algorithm will be used

     Message from routine setup:
     DEPRECATED: symmetry with ibrav=0, use correct ibrav instead

     G-vector sticks info
     --------------------
     sticks:   dense  smooth     PW     G-vecs:    dense   smooth      PW
     Sum         577     441    145                10395     7153    1357



     bravais-lattice index     =            0
     lattice parameter (alat)  =       7.5567  a.u.
     unit-cell volume          =     431.5085 (a.u.)^3
     number of atoms/cell      =           31
     number of atomic types    =            1
     number of electrons       =        93.00
     number of Kohn-Sham states=           56
     kinetic-energy cutoff     =      25.0000  Ry
     charge density cutoff     =     126.0000  Ry
     convergence threshold     =      1.0E-06
     mixing beta               =       0.1000
     number of iterations used =           10  TF        mixing
     Exchange-correlation      = SLA PW PBX PBC ( 1  4  3  4 0 0)

     celldm(1)=   7.556658  celldm(2)=   0.000000  celldm(3)=   0.000000
     celldm(4)=   0.000000  celldm(5)=   0.000000  celldm(6)=   0.000000

     crystal axes: (cart. coord. in units of alat)
               a(1) = (   1.000000   0.000000   0.000000 )  
               a(2) = (   0.000000   1.000000   0.000000 )  
               a(3) = (   0.000000   0.000000   1.000000 )  

     reciprocal axes: (cart. coord. in units 2 pi/alat)
               b(1) = (  1.000000  0.000000  0.000000 )  
               b(2) = (  0.000000  1.000000  0.000000 )  
               b(3) = (  0.000000  0.000000  1.000000 )  


     PseudoPot. # 1 for Al read from file:
     /opt/pp/Al.pbe-nl-kjpaw_psl.1.0.0.UPF
     MD5 check sum: 1b67f78b73fe58c7924490f171ce8a1e
     Pseudo is Projector augmented-wave + core cor, Zval =  3.0
     Generated using "atomic" code by A. Dal Corso v.6.3
     Shape of augmentation charge: PSQ
     Using radial grid of 1135 points,  4 beta functions with: 
                l(1) =   0
                l(2) =   0
                l(3) =   1
                l(4) =   1
     Q(r) pseudized with 0 coefficients 


     atomic species   valence    mass     pseudopotential
        Al             3.00    26.98200     Al( 1.00)

     48 Sym. Ops., with inversion, found (44 have fractional translation)



   Cartesian axes

     site n.     atom                  positions (alat units)
         1           Al  tau(   1) = (   0.0000000   0.0000000   0.0000000  )
         2           Al  tau(   2) = (   0.2500000   0.2500000   0.0000000  )
         3           Al  tau(   3) = (   0.2500000   0.0000000   0.2500000  )
         4           Al  tau(   4) = (   0.0000000   0.2500000   0.2500000  )
         5           Al  tau(   5) = (   0.0000000   0.0000000   0.5000000  )
         6           Al  tau(   6) = (   0.2500000   0.2500000   0.5000000  )
         7           Al  tau(   7) = (   0.2500000   0.0000000   0.7500000  )
         8           Al  tau(   8) = (   0.0000000   0.2500000   0.7500000  )
         9           Al  tau(   9) = (   0.0000000   0.5000000   0.0000000  )
        10           Al  tau(  10) = (   0.2500000   0.7500000   0.0000000  )
        11           Al  tau(  11) = (   0.2500000   0.5000000   0.2500000  )
        12           Al  tau(  12) = (   0.0000000   0.7500000   0.2500000  )
        13           Al  tau(  13) = (   0.0000000   0.5000000   0.5000000  )
        14           Al  tau(  14) = (   0.2500000   0.7500000   0.5000000  )
        15           Al  tau(  15) = (   0.2500000   0.5000000   0.7500000  )
        16           Al  tau(  16) = (   0.0000000   0.7500000   0.7500000  )
        17           Al  tau(  17) = (   0.5000000   0.0000000   0.0000000  )
        18           Al  tau(  18) = (   0.7500000   0.2500000   0.0000000  )
        19           Al  tau(  19) = (   0.7500000   0.0000000   0.2500000  )
        20           Al  tau(  20) = (   0.5000000   0.2500000   0.2500000  )
        21           Al  tau(  21) = (   0.5000000   0.0000000   0.5000000  )
        22           Al  tau(  22) = (   0.7500000   0.2500000   0.5000000  )
        23           Al  tau(  23) = (   0.7500000   0.0000000   0.7500000  )
        24           Al  tau(  24) = (   0.5000000   0.2500000   0.7500000  )
        25           Al  tau(  25) = (   0.5000000   0.5000000   0.0000000  )
        26           Al  tau(  26) = (   0.7500000   0.7500000   0.0000000  )
        27           Al  tau(  27) = (   0.7500000   0.5000000   0.2500000  )
        28           Al  tau(  28) = (   0.5000000   0.7500000   0.2500000  )
        29           Al  tau(  29) = (   0.5000000   0.5000000   0.5000000  )
        30           Al  tau(  30) = (   0.7500000   0.7500000   0.5000000  )
        31           Al  tau(  31) = (   0.7500000   0.5000000   0.7500000  )

     number of k points=     4  Marzari-Vanderbilt smearing, width (Ry)=  0.0200
                       cart. coord. in units 2pi/alat
        k(    1) = (   0.1666667   0.1666667   0.1666667), wk =   0.5925926
        k(    2) = (   0.1666667   0.1666667  -0.5000000), wk =   0.8888889
        k(    3) = (   0.1666667  -0.5000000  -0.5000000), wk =   0.4444444
        k(    4) = (  -0.5000000  -0.5000000  -0.5000000), wk =   0.0740741

     Dense  grid:    10395 G-vectors     FFT dimensions: (  32,  32,  32)

     Smooth grid:     7153 G-vectors     FFT dimensions: (  32,  32,  32)

     Estimated max dynamical RAM per process >      36.19 MB

     Initial potential from superposition of free atoms

     starting charge   92.92900, renormalised to   93.00000
     Starting wfcs are  124 randomized atomic wfcs
     Checking if some PAW data can be deallocated... 

     total cpu time spent up to now is        2.9 secs

     Self-consistent Calculation

     iteration #  1     ecut=    25.00 Ry     beta= 0.10
     Davidson diagonalization with overlap
     ethr =  1.00E-02,  avg # of iterations =  4.5

     total cpu time spent up to now is        5.5 secs

     total energy              =   -1057.03294955 Ry
     Harris-Foulkes estimate   =   -1059.02492271 Ry
     estimated scf accuracy    <       9.25106725 Ry

     iteration #  2     ecut=    25.00 Ry     beta= 0.10
     Davidson diagonalization with overlap
     ethr =  9.95E-03,  avg # of iterations =  1.0

     total cpu time spent up to now is        7.1 secs

     total energy              =   -1049.90276877 Ry
     Harris-Foulkes estimate   =   -1057.09775453 Ry
     estimated scf accuracy    <       7.42206976 Ry

     iteration #  3     ecut=    25.00 Ry     beta= 0.10
     Davidson diagonalization with overlap
     ethr =  7.98E-03,  avg # of iterations =  3.0

     total cpu time spent up to now is        8.9 secs

     total energy              =   -1052.19393064 Ry
     Harris-Foulkes estimate   =   -1051.63224124 Ry
     estimated scf accuracy    <       1.17548550 Ry

     iteration #  4     ecut=    25.00 Ry     beta= 0.10
     Davidson diagonalization with overlap
     ethr =  1.26E-03,  avg # of iterations =  3.2

     total cpu time spent up to now is       10.9 secs

     total energy              =   -1051.28856951 Ry
     Harris-Foulkes estimate   =   -1052.52956920 Ry
     estimated scf accuracy    <       1.11302475 Ry

     iteration #  5     ecut=    25.00 Ry     beta= 0.10
     Davidson diagonalization with overlap
     ethr =  1.20E-03,  avg # of iterations =  3.5

     total cpu time spent up to now is       13.0 secs

     total energy              =   -1051.66858094 Ry
     Harris-Foulkes estimate   =   -1051.72480996 Ry
     estimated scf accuracy    <       0.11574298 Ry

     iteration #  6     ecut=    25.00 Ry     beta= 0.10
     Davidson diagonalization with overlap
     ethr =  1.24E-04,  avg # of iterations =  5.5

     total cpu time spent up to now is       14.9 secs

     total energy              =   -1051.66425139 Ry
     Harris-Foulkes estimate   =   -1051.67851323 Ry
     estimated scf accuracy    <       0.08032733 Ry

     iteration #  7     ecut=    25.00 Ry     beta= 0.10
     Davidson diagonalization with overlap
     ethr =  8.64E-05,  avg # of iterations =  3.8

     total cpu time spent up to now is       16.9 secs

     total energy              =   -1051.66041608 Ry
     Harris-Foulkes estimate   =   -1051.69084676 Ry
     estimated scf accuracy    <       0.14919256 Ry

     iteration #  8     ecut=    25.00 Ry     beta= 0.10
     Davidson diagonalization with overlap
     ethr =  8.64E-05,  avg # of iterations =  3.0

     total cpu time spent up to now is       18.7 secs

     total energy              =   -1051.67879142 Ry
     Harris-Foulkes estimate   =   -1051.68116195 Ry
     estimated scf accuracy    <       0.01668353 Ry

     iteration #  9     ecut=    25.00 Ry     beta= 0.10
     Davidson diagonalization with overlap
     ethr =  1.79E-05,  avg # of iterations =  4.0

     total cpu time spent up to now is       20.6 secs

     total energy              =   -1051.67977413 Ry
     Harris-Foulkes estimate   =   -1051.68222594 Ry
     estimated scf accuracy    <       0.01106170 Ry

     iteration # 10     ecut=    25.00 Ry     beta= 0.10
     Davidson diagonalization with overlap
     ethr =  1.19E-05,  avg # of iterations =  1.0

     total cpu time spent up to now is       22.3 secs

     total energy              =   -1051.67904294 Ry
     Harris-Foulkes estimate   =   -1051.68028948 Ry
     estimated scf accuracy    <       0.00326871 Ry

     iteration # 11     ecut=    25.00 Ry     beta= 0.10
     Davidson diagonalization with overlap
     ethr =  3.51E-06,  avg # of iterations =  5.2

     total cpu time spent up to now is       24.1 secs

     total energy              =   -1051.67914481 Ry
     Harris-Foulkes estimate   =   -1051.67919361 Ry
     estimated scf accuracy    <       0.00169405 Ry

     iteration # 12     ecut=    25.00 Ry     beta= 0.10
     Davidson diagonalization with overlap
     ethr =  1.82E-06,  avg # of iterations =  5.0

     total cpu time spent up to now is       26.0 secs

     total energy              =   -1051.67750170 Ry
     Harris-Foulkes estimate   =   -1051.67928572 Ry
     estimated scf accuracy    <       0.00131912 Ry

     iteration # 13     ecut=    25.00 Ry     beta= 0.10
     Davidson diagonalization with overlap
     ethr =  1.42E-06,  avg # of iterations =  3.2

     total cpu time spent up to now is       28.0 secs

     total energy              =   -1051.67776439 Ry
     Harris-Foulkes estimate   =   -1051.67782663 Ry
     estimated scf accuracy    <       0.00005075 Ry

     iteration # 14     ecut=    25.00 Ry     beta= 0.10
     Davidson diagonalization with overlap
     ethr =  5.46E-08,  avg # of iterations =  4.5

     total cpu time spent up to now is       30.5 secs

     total energy              =   -1051.67781642 Ry
     Harris-Foulkes estimate   =   -1051.67781666 Ry
     estimated scf accuracy    <       0.00006614 Ry

     iteration # 15     ecut=    25.00 Ry     beta= 0.10
     Davidson diagonalization with overlap
     ethr =  5.46E-08,  avg # of iterations =  1.0

     total cpu time spent up to now is       32.2 secs

     total energy              =   -1051.67780887 Ry
     Harris-Foulkes estimate   =   -1051.67781821 Ry
     estimated scf accuracy    <       0.00007205 Ry

     iteration # 16     ecut=    25.00 Ry     beta= 0.10
     Davidson diagonalization with overlap
     ethr =  5.46E-08,  avg # of iterations =  1.2

     total cpu time spent up to now is       33.8 secs

     total energy              =   -1051.67780835 Ry
     Harris-Foulkes estimate   =   -1051.67781354 Ry
     estimated scf accuracy    <       0.00001736 Ry

     iteration # 17     ecut=    25.00 Ry     beta= 0.10
     Davidson diagonalization with overlap
     ethr =  1.87E-08,  avg # of iterations =  3.2

     total cpu time spent up to now is       35.6 secs

     total energy              =   -1051.67781188 Ry
     Harris-Foulkes estimate   =   -1051.67781103 Ry
     estimated scf accuracy    <       0.00000207 Ry

     iteration # 18     ecut=    25.00 Ry     beta= 0.10
     Davidson diagonalization with overlap
     ethr =  2.23E-09,  avg # of iterations =  3.8

     total cpu time spent up to now is       37.5 secs

     total energy              =   -1051.67781219 Ry
     Harris-Foulkes estimate   =   -1051.67781229 Ry
     estimated scf accuracy    <       0.00000119 Ry

     iteration # 19     ecut=    25.00 Ry     beta= 0.10
     Davidson diagonalization with overlap
     ethr =  1.27E-09,  avg # of iterations =  1.0

     total cpu time spent up to now is       39.2 secs

     total energy              =   -1051.67781047 Ry
     Harris-Foulkes estimate   =   -1051.67781222 Ry
     estimated scf accuracy    <       0.00000153 Ry

     iteration # 20     ecut=    25.00 Ry     beta= 0.10
     Davidson diagonalization with overlap
     ethr =  1.27E-09,  avg # of iterations =  2.8

     total cpu time spent up to now is       40.9 secs

     End of self-consistent calculation

          k = 0.1667 0.1667 0.1667 (   922 PWs)   bands (ev):

    39.3530  43.0048  45.7610  45.7610  46.4783  47.1942  47.4080  47.4080
    48.1807  48.1807  48.9570  49.5906  49.5906  50.6674  50.8924  50.9742
    50.9742  51.0168  51.4483  51.4483  51.6425  51.7757  51.7757  51.8448
    52.6771  52.6771  53.0180  53.6029  54.0000  54.0000  54.5702  54.5702
    56.5512  56.8594  56.8594  58.6691  59.3210  59.3210  59.3893  60.5563
    61.1600  61.1600  61.3333  61.3627  61.3627  61.7374  61.7374  62.0828
    62.4500  62.5318  62.5318  62.9149  63.2175  63.2175  63.8724  63.8982

          k = 0.1667 0.1667-0.5000 (   904 PWs)   bands (ev):

    39.9603  42.9757  44.8016  47.2185  47.2191  47.2550  47.9004  47.9057
    48.7747  48.8329  48.8879  49.1879  49.2305  49.3844  49.5102  50.1841
    50.4101  50.6796  51.9409  51.9594  52.0747  52.2485  52.4662  52.4699
    52.5111  52.6245  52.6743  52.8408  54.2368  54.6530  54.7059  55.4099
    56.9444  57.0916  58.7988  58.8228  58.9507  59.0743  59.7064  59.7133
    60.0346  60.1800  60.2307  60.5328  60.7958  60.8012  60.9358  61.0656
    61.1521  61.3151  61.3268  62.0289  62.2508  62.8727  63.7352  63.9210

          k = 0.1667-0.5000-0.5000 (   920 PWs)   bands (ev):

    40.3165  44.6208  44.6397  44.6397  46.7277  48.3701  48.4275  48.4275
    49.2519  49.6104  49.6104  49.6478  49.7354  49.8697  49.8697  50.4270
    50.5929  50.6411  50.6411  50.6913  50.8824  50.8824  51.0151  53.4262
    53.5415  53.5415  53.5792  53.6394  53.7613  53.7613  54.8628  56.6117
    56.9823  57.9490  58.0539  58.0539  58.1981  58.2375  58.6231  58.6231
    59.6146  59.8318  59.8318  60.6217  60.8002  60.9358  60.9358  60.9816
    60.9838  61.0507  61.0507  61.1663  61.4261  63.1440  63.1440  63.2956

          k =-0.5000-0.5000-0.5000 (   912 PWs)   bands (ev):

    40.5248  45.9972  46.0716  46.0716  46.0716  46.0744  46.0744  46.0744
    49.7129  51.2871  51.2871  51.2871  51.2986  51.3006  51.3006  51.3006
    51.4308  51.4308  51.4308  51.4480  51.4480  51.4480  51.4582  51.4582
    51.5401  51.5401  51.5401  51.9420  51.9420  51.9420  55.6983  55.6983
    58.2134  59.2874  59.2874  59.2874  59.3959  59.3959  59.3959  59.4860
    59.4860  59.4860  59.4931  59.4931  59.5410  59.5410  59.5410  59.6246
    59.6246  59.6246  59.6674  59.6674  59.9053  62.6520  62.6520  62.6520

     the Fermi energy is    61.1202 ev

!    total energy              =   -1051.67781009 Ry
     Harris-Foulkes estimate   =   -1051.67781061 Ry
     estimated scf accuracy    <       0.00000041 Ry

     total all-electron energy =    -14882.104006 Ry

     The total energy is the sum of the following terms:

     one-electron contribution =     521.52658535 Ry
     hartree contribution      =       3.44499590 Ry
     xc contribution           =    -141.58902364 Ry
     ewald contribution        =    -331.01419550 Ry
     one-center paw contrib.   =   -1104.03609711 Ry
     smearing contrib. (-TS)   =      -0.01007509 Ry

     convergence has been achieved in  20 iterations

     Forces acting on atoms (cartesian axes, Ry/au):

     atom    1 type  1   force =    -0.00000000   -0.01922768   -0.01922768
     atom    2 type  1   force =     0.01922768    0.00000000   -0.01922768
     atom    3 type  1   force =     0.01922768   -0.01922768   -0.00000000
     atom    4 type  1   force =     0.00000000    0.00000000    0.00000000
     atom    5 type  1   force =    -0.00000000   -0.01922768    0.01922768
     atom    6 type  1   force =     0.01922768   -0.00000000    0.01922768
     atom    7 type  1   force =     1.07513937   -1.07513937    0.00000000
     atom    8 type  1   force =     0.00000000    0.00000000    0.00000000
     atom    9 type  1   force =     0.00000000    0.01922768   -0.01922768
     atom   10 type  1   force =     1.07513937    0.00000000   -1.07513937
     atom   11 type  1   force =     0.01922768    0.01922768   -0.00000000
     atom   12 type  1   force =     0.00000000    0.00000000    0.00000000
     atom   13 type  1   force =     0.00000000    0.01922768    0.01922768
     atom   14 type  1   force =     1.07513937   -0.00000000    1.07513937
     atom   15 type  1   force =     1.07513937    1.07513937   -0.00000000
     atom   16 type  1   force =     0.00000000    0.00000000    0.00000000
     atom   17 type  1   force =    -0.00000000   -1.07513937   -1.07513937
     atom   18 type  1   force =    -0.01922768   -0.00000000   -0.01922768
     atom   19 type  1   force =    -0.01922768   -0.01922768    0.00000000
     atom   20 type  1   force =     0.00000000    0.00000000    0.00000000
     atom   21 type  1   force =    -0.00000000   -1.07513937    1.07513937
     atom   22 type  1   force =    -0.01922768   -0.00000000    0.01922768
     atom   23 type  1   force =    -1.07513937   -1.07513937    0.00000000
     atom   24 type  1   force =     0.00000000    0.00000000    0.00000000
     atom   25 type  1   force =     0.00000000    1.07513937   -1.07513937
     atom   26 type  1   force =    -1.07513937    0.00000000   -1.07513937
     atom   27 type  1   force =    -0.01922768    0.01922768   -0.00000000
     atom   28 type  1   force =     0.00000000    0.00000000    0.00000000
     atom   29 type  1   force =    -0.00000000    1.07513937    1.07513937
     atom   30 type  1   force =    -1.07513937    0.00000000    1.07513937
     atom   31 type  1   force =    -1.07513937    1.07513937    0.00000000

     Total force =     5.267928     Total SCF correction =     0.000382


     Computing stress (Cartesian axis) and pressure

          total   stress  (Ry/bohr**3)                   (kbar)     P=85922.36
   0.58408841   0.00000000   0.00000000      85922.36      0.00      0.00
   0.00000000   0.58408841   0.00000000          0.00  85922.36      0.00
   0.00000000   0.00000000   0.58408841          0.00      0.00  85922.36


     Writing output data file uWOTSxoIFJkcFRtq.save/

     init_run     :      1.79s CPU      1.82s WALL (       1 calls)
     electrons    :     37.92s CPU     37.99s WALL (       1 calls)
     forces       :      0.61s CPU      0.62s WALL (       1 calls)
     stress       :      0.42s CPU      0.42s WALL (       1 calls)

     Called by init_run:
     wfcinit      :      0.63s CPU      0.64s WALL (       1 calls)
     potinit      :      0.94s CPU      0.96s WALL (       1 calls)
     hinit0       :      0.19s CPU      0.19s WALL (       1 calls)

     Called by electrons:
     c_bands      :     16.21s CPU     16.27s WALL (      20 calls)
     sum_band     :      2.06s CPU      2.07s WALL (      20 calls)
     v_of_rho     :      0.24s CPU      0.25s WALL (      21 calls)
     newd         :      0.47s CPU      0.47s WALL (      21 calls)
     PAW_pot      :     19.84s CPU     19.86s WALL (      21 calls)
     mix_rho      :      0.03s CPU      0.03s WALL (      20 calls)

     Called by c_bands:
     init_us_2    :      0.09s CPU      0.10s WALL (     172 calls)
     cegterg      :     15.97s CPU     16.02s WALL (      80 calls)

     Called by sum_band:
     sum_band:bec :      0.02s CPU      0.02s WALL (      80 calls)
     addusdens    :      0.20s CPU      0.20s WALL (      20 calls)

     Called by *egterg:
     h_psi        :      7.93s CPU      7.97s WALL (     338 calls)
     s_psi        :      2.32s CPU      2.33s WALL (     338 calls)
     g_psi        :      0.02s CPU      0.02s WALL (     254 calls)
     cdiaghg      :      2.36s CPU      2.36s WALL (     334 calls)

     Called by h_psi:
     h_psi:pot    :      7.91s CPU      7.95s WALL (     338 calls)
     h_psi:calbec :      2.92s CPU      2.92s WALL (     338 calls)
     vloc_psi     :      2.66s CPU      2.69s WALL (     338 calls)
     add_vuspsi   :      2.33s CPU      2.33s WALL (     338 calls)

     General routines
     calbec       :      4.27s CPU      4.28s WALL (     438 calls)
     fft          :      0.05s CPU      0.05s WALL (     296 calls)
     ffts         :      0.01s CPU      0.01s WALL (      41 calls)
     fftw         :      2.62s CPU      2.66s WALL (   27952 calls)
     interpolate  :      0.01s CPU      0.01s WALL (      21 calls)

     Parallel routines

     PWSCF        :     41.05s CPU     41.94s WALL


   This run was terminated on:  17:23:56  18Mar2020            

=------------------------------------------------------------------------------=
   JOB DONE.
=------------------------------------------------------------------------------=
