
     Program PWSCF v.6.4.1 starts on 19Apr2020 at 17:40:29 

     This program is part of the open-source Quantum ESPRESSO suite
     for quantum simulation of materials; please cite
         "P. Giannozzi et al., J. Phys.:Condens. Matter 21 395502 (2009);
         "P. Giannozzi et al., J. Phys.:Condens. Matter 29 465901 (2017);
          URL http://www.quantum-espresso.org", 
     in publications or presentations arising from this work. More details at
     http://www.quantum-espresso.org/quote

     Parallel version (MPI), running on     1 processors

     MPI processes distributed on     1 nodes
     Reading input from wd/configs/1/config_0001.in
Warning: card &IONS ignored
Warning: card ION_DYNAMICS = 'BFGS', ignored
Warning: card / ignored
Warning: card &CELL ignored
Warning: card CELL_DYNAMICS = 'BFGS', ignored
Warning: card CELL_FACTOR = 2.0, ignored
Warning: card PRESS = 0.0, ignored
Warning: card / ignored

     Current dimensions of program PWSCF are:
     Max number of different atomic species (ntypx) = 10
     Max number of k-points (npk) =  40000
     Max angular momentum in pseudopotentials (lmaxx) =  3
               file Al.pbe-nl-kjpaw_psl.1.0.0.UPF: wavefunction(s)  3S 3P renormalized

     Subspace diagonalization in iterative solution of the eigenvalue problem:
     a serial algorithm will be used


     G-vector sticks info
     --------------------
     sticks:   dense  smooth     PW     G-vecs:    dense   smooth      PW
     Sum         489     377    129                 8025     5575    1045



     bravais-lattice index     =            0
     lattice parameter (alat)  =       6.9334  a.u.
     unit-cell volume          =     333.3044 (a.u.)^3
     number of atoms/cell      =            3
     number of atomic types    =            1
     number of electrons       =         9.00
     number of Kohn-Sham states=            9
     kinetic-energy cutoff     =      25.0000  Ry
     charge density cutoff     =     126.0000  Ry
     convergence threshold     =      1.0E-06
     mixing beta               =       0.1000
     number of iterations used =           10  TF        mixing
     Exchange-correlation      = SLA PW PBX PBC ( 1  4  3  4 0 0)

     celldm(1)=   6.933412  celldm(2)=   0.000000  celldm(3)=   0.000000
     celldm(4)=   0.000000  celldm(5)=   0.000000  celldm(6)=   0.000000

     crystal axes: (cart. coord. in units of alat)
               a(1) = (   1.000000   0.000000   0.000000 )  
               a(2) = (   0.000000   1.000000   0.000000 )  
               a(3) = (   0.000000   0.000000   1.000000 )  

     reciprocal axes: (cart. coord. in units 2 pi/alat)
               b(1) = (  1.000000  0.000000  0.000000 )  
               b(2) = (  0.000000  1.000000  0.000000 )  
               b(3) = (  0.000000  0.000000  1.000000 )  


     PseudoPot. # 1 for Al read from file:
     /opt/pp/Al.pbe-nl-kjpaw_psl.1.0.0.UPF
     MD5 check sum: 1b67f78b73fe58c7924490f171ce8a1e
     Pseudo is Projector augmented-wave + core cor, Zval =  3.0
     Generated using "atomic" code by A. Dal Corso v.6.3
     Shape of augmentation charge: PSQ
     Using radial grid of 1135 points,  4 beta functions with: 
                l(1) =   0
                l(2) =   0
                l(3) =   1
                l(4) =   1
     Q(r) pseudized with 0 coefficients 


     atomic species   valence    mass     pseudopotential
        Al             3.00    26.98200     Al( 1.00)

     No symmetry found



   Cartesian axes

     site n.     atom                  positions (alat units)
         1           Al  tau(   1) = (  -0.0015862  -0.0014004  -0.0011426  )
         2           Al  tau(   2) = (   0.4989083  -0.0022792   0.4988675  )
         3           Al  tau(   3) = (  -0.0018514   0.4986920   0.4998594  )

     number of k points=    14  Marzari-Vanderbilt smearing, width (Ry)=  0.0200
                       cart. coord. in units 2pi/alat
        k(    1) = (   0.1666667   0.1666667   0.1666667), wk =   0.1481481
        k(    2) = (   0.1666667   0.1666667  -0.5000000), wk =   0.1481481
        k(    3) = (   0.1666667  -0.5000000  -0.5000000), wk =   0.1481481
        k(    4) = (  -0.5000000  -0.5000000  -0.5000000), wk =   0.0740741
        k(    5) = (  -0.1666667  -0.1666667   0.1666667), wk =   0.1481481
        k(    6) = (  -0.1666667   0.1666667  -0.1666667), wk =   0.1481481
        k(    7) = (   0.1666667  -0.1666667  -0.1666667), wk =   0.1481481
        k(    8) = (  -0.1666667   0.1666667   0.5000000), wk =   0.1481481
        k(    9) = (  -0.5000000  -0.1666667   0.1666667), wk =   0.1481481
        k(   10) = (   0.5000000  -0.1666667  -0.1666667), wk =   0.1481481
        k(   11) = (  -0.1666667  -0.5000000   0.1666667), wk =   0.1481481
        k(   12) = (  -0.1666667   0.5000000  -0.1666667), wk =   0.1481481
        k(   13) = (  -0.5000000   0.1666667   0.5000000), wk =   0.1481481
        k(   14) = (  -0.5000000   0.5000000   0.1666667), wk =   0.1481481

     Dense  grid:     8025 G-vectors     FFT dimensions: (  25,  25,  25)

     Smooth grid:     5575 G-vectors     FFT dimensions: (  24,  24,  24)

     Estimated max dynamical RAM per process >      13.06 MB

     Initial potential from superposition of free atoms

     starting charge    8.99313, renormalised to    9.00000
     Starting wfcs are   12 randomized atomic wfcs
     Checking if some PAW data can be deallocated... 

     total cpu time spent up to now is        0.7 secs

     Self-consistent Calculation

     iteration #  1     ecut=    25.00 Ry     beta= 0.10
     Davidson diagonalization with overlap
     ethr =  1.00E-02,  avg # of iterations =  3.5

     Threshold (ethr) on eigenvalues was too large:
     Diagonalizing with lowered threshold

     Davidson diagonalization with overlap
     ethr =  3.98E-04,  avg # of iterations =  4.4

     total cpu time spent up to now is        1.0 secs

     total energy              =    -118.43991688 Ry
     Harris-Foulkes estimate   =    -118.44157976 Ry
     estimated scf accuracy    <       0.03580319 Ry

     iteration #  2     ecut=    25.00 Ry     beta= 0.10
     Davidson diagonalization with overlap
     ethr =  3.98E-04,  avg # of iterations =  1.0

     total cpu time spent up to now is        1.2 secs

     total energy              =    -118.42741678 Ry
     Harris-Foulkes estimate   =    -118.43999591 Ry
     estimated scf accuracy    <       0.03054133 Ry

     iteration #  3     ecut=    25.00 Ry     beta= 0.10
     Davidson diagonalization with overlap
     ethr =  3.39E-04,  avg # of iterations =  1.4

     total cpu time spent up to now is        1.4 secs

     total energy              =    -118.43133505 Ry
     Harris-Foulkes estimate   =    -118.43131366 Ry
     estimated scf accuracy    <       0.00040645 Ry

     iteration #  4     ecut=    25.00 Ry     beta= 0.10
     Davidson diagonalization with overlap
     ethr =  4.52E-06,  avg # of iterations =  4.9

     total cpu time spent up to now is        1.6 secs

     total energy              =    -118.43160144 Ry
     Harris-Foulkes estimate   =    -118.43165626 Ry
     estimated scf accuracy    <       0.00039457 Ry

     iteration #  5     ecut=    25.00 Ry     beta= 0.10
     Davidson diagonalization with overlap
     ethr =  4.38E-06,  avg # of iterations =  1.0

     total cpu time spent up to now is        1.8 secs

     total energy              =    -118.43170195 Ry
     Harris-Foulkes estimate   =    -118.43160725 Ry
     estimated scf accuracy    <       0.00027083 Ry

     iteration #  6     ecut=    25.00 Ry     beta= 0.10
     Davidson diagonalization with overlap
     ethr =  3.01E-06,  avg # of iterations =  2.0

     total cpu time spent up to now is        2.0 secs

     total energy              =    -118.43172074 Ry
     Harris-Foulkes estimate   =    -118.43172256 Ry
     estimated scf accuracy    <       0.00001573 Ry

     iteration #  7     ecut=    25.00 Ry     beta= 0.10
     Davidson diagonalization with overlap
     ethr =  1.75E-07,  avg # of iterations =  1.6

     total cpu time spent up to now is        2.2 secs

     total energy              =    -118.43169919 Ry
     Harris-Foulkes estimate   =    -118.43172188 Ry
     estimated scf accuracy    <       0.00001363 Ry

     iteration #  8     ecut=    25.00 Ry     beta= 0.10
     Davidson diagonalization with overlap
     ethr =  1.51E-07,  avg # of iterations =  1.3

     total cpu time spent up to now is        2.4 secs

     total energy              =    -118.43169983 Ry
     Harris-Foulkes estimate   =    -118.43170024 Ry
     estimated scf accuracy    <       0.00000429 Ry

     iteration #  9     ecut=    25.00 Ry     beta= 0.10
     Davidson diagonalization with overlap
     ethr =  4.77E-08,  avg # of iterations =  1.9

     total cpu time spent up to now is        2.6 secs

     End of self-consistent calculation

          k = 0.1667 0.1667 0.1667 (   706 PWs)   bands (ev):

    -2.7440   4.3866   4.3874   4.4743  10.4641  10.4668  11.6900  12.0309
    12.0325

          k = 0.1667 0.1667-0.5000 (   716 PWs)   bands (ev):

    -1.0396   0.5291   5.6951   6.2640   7.0152   8.1958  12.3577  12.8763
    13.5622

          k = 0.1667-0.5000-0.5000 (   692 PWs)   bands (ev):

     0.6838   2.1205   2.1206   3.7769   7.6690   8.9015   8.9016  11.8354
    15.1085

          k =-0.5000-0.5000-0.5000 (   672 PWs)   bands (ev):

     2.1944   4.1108   4.1109   4.1109   4.8016   4.8017   4.8018   8.5166
    21.6087

          k =-0.1667-0.1667 0.1667 (   706 PWs)   bands (ev):

    -2.7440   4.3855   4.3885   4.4743  10.4597  10.4712  11.6899  12.0287
    12.0326

          k =-0.1667 0.1667-0.1667 (   706 PWs)   bands (ev):

    -2.7440   4.3850   4.3890   4.4743  10.4577  10.4731  11.6899  12.0279
    12.0327

          k = 0.1667-0.1667-0.1667 (   706 PWs)   bands (ev):

    -2.7440   4.3869   4.3871   4.4743  10.4649  10.4659  11.6899  12.0302
    12.0326

          k =-0.1667 0.1667 0.5000 (   716 PWs)   bands (ev):

    -1.0396   0.5291   5.6951   6.2640   7.0152   8.1958  12.3577  12.8762
    13.5622

          k =-0.5000-0.1667 0.1667 (   716 PWs)   bands (ev):

    -1.0396   0.5290   5.6952   6.2641   7.0151   8.1957  12.3578  12.8763
    13.5621

          k = 0.5000-0.1667-0.1667 (   716 PWs)   bands (ev):

    -1.0396   0.5290   5.6952   6.2641   7.0151   8.1957  12.3578  12.8763
    13.5621

          k =-0.1667-0.5000 0.1667 (   716 PWs)   bands (ev):

    -1.0397   0.5291   5.6951   6.2640   7.0152   8.1959  12.3577  12.8762
    13.5622

          k =-0.1667 0.5000-0.1667 (   716 PWs)   bands (ev):

    -1.0397   0.5291   5.6951   6.2640   7.0152   8.1959  12.3577  12.8762
    13.5622

          k =-0.5000 0.1667 0.5000 (   692 PWs)   bands (ev):

     0.6838   2.1205   2.1206   3.7768   7.6691   8.9015   8.9016  11.8353
    15.1086

          k =-0.5000 0.5000 0.1667 (   692 PWs)   bands (ev):

     0.6838   2.1204   2.1206   3.7768   7.6691   8.9015   8.9016  11.8354
    15.1085

     the Fermi energy is     7.1960 ev

!    total energy              =    -118.43170032 Ry
     Harris-Foulkes estimate   =    -118.43170052 Ry
     estimated scf accuracy    <       0.00000036 Ry

     total all-electron energy =     -1456.860042 Ry

     The total energy is the sum of the following terms:

     one-electron contribution =       8.85951702 Ry
     hartree contribution      =       0.33034099 Ry
     xc contribution           =      -7.91705573 Ry
     ewald contribution        =     -15.58584102 Ry
     one-center paw contrib.   =    -104.11834974 Ry
     smearing contrib. (-TS)   =      -0.00031183 Ry

     convergence has been achieved in   9 iterations

     Forces acting on atoms (cartesian axes, Ry/au):

     atom    1 type  1   force =     0.00046978    0.00013633    0.00095613
     atom    2 type  1   force =    -0.00118019    0.00089524   -0.00004490
     atom    3 type  1   force =     0.00071041   -0.00103156   -0.00091123

     Total force =     0.002398     Total SCF correction =     0.000057


     Computing stress (Cartesian axis) and pressure

          total   stress  (Ry/bohr**3)                   (kbar)     P=  186.79
   0.00126966  -0.00000006   0.00000002        186.77     -0.01      0.00
  -0.00000006   0.00126991   0.00000001         -0.01    186.81      0.00
   0.00000002   0.00000001   0.00126974          0.00      0.00    186.78


     Writing output data file RlLckEmHImHvsLsA.save/

     init_run     :      0.24s CPU      0.29s WALL (       1 calls)
     electrons    :      1.93s CPU      1.94s WALL (       1 calls)
     forces       :      0.03s CPU      0.03s WALL (       1 calls)
     stress       :      0.07s CPU      0.07s WALL (       1 calls)

     Called by init_run:
     wfcinit      :      0.05s CPU      0.05s WALL (       1 calls)
     potinit      :      0.09s CPU      0.11s WALL (       1 calls)
     hinit0       :      0.10s CPU      0.12s WALL (       1 calls)

     Called by electrons:
     c_bands      :      0.86s CPU      0.87s WALL (      10 calls)
     sum_band     :      0.17s CPU      0.17s WALL (      10 calls)
     v_of_rho     :      0.06s CPU      0.06s WALL (      10 calls)
     newd         :      0.03s CPU      0.04s WALL (      10 calls)
     PAW_pot      :      0.88s CPU      0.89s WALL (      10 calls)
     mix_rho      :      0.00s CPU      0.00s WALL (      10 calls)

     Called by c_bands:
     init_us_2    :      0.03s CPU      0.03s WALL (     322 calls)
     cegterg      :      0.82s CPU      0.83s WALL (     140 calls)

     Called by sum_band:
     sum_band:bec :      0.00s CPU      0.00s WALL (     140 calls)
     addusdens    :      0.03s CPU      0.03s WALL (      10 calls)

     Called by *egterg:
     h_psi        :      0.64s CPU      0.65s WALL (     476 calls)
     s_psi        :      0.05s CPU      0.05s WALL (     476 calls)
     g_psi        :      0.00s CPU      0.00s WALL (     322 calls)
     cdiaghg      :      0.04s CPU      0.04s WALL (     448 calls)

     Called by h_psi:
     h_psi:pot    :      0.64s CPU      0.64s WALL (     476 calls)
     h_psi:calbec :      0.06s CPU      0.06s WALL (     476 calls)
     vloc_psi     :      0.54s CPU      0.54s WALL (     476 calls)
     add_vuspsi   :      0.05s CPU      0.05s WALL (     476 calls)

     General routines
     calbec       :      0.09s CPU      0.09s WALL (     686 calls)
     fft          :      0.01s CPU      0.02s WALL (     154 calls)
     ffts         :      0.01s CPU      0.01s WALL (      20 calls)
     fftw         :      0.58s CPU      0.58s WALL (    7720 calls)
     interpolate  :      0.00s CPU      0.01s WALL (      10 calls)

     Parallel routines

     PWSCF        :      2.57s CPU      2.69s WALL


   This run was terminated on:  17:40:31  19Apr2020            

=------------------------------------------------------------------------------=
   JOB DONE.
=------------------------------------------------------------------------------=
