
     Program PWSCF v.6.4.1 starts on 19Apr2020 at 17:40:32 

     This program is part of the open-source Quantum ESPRESSO suite
     for quantum simulation of materials; please cite
         "P. Giannozzi et al., J. Phys.:Condens. Matter 21 395502 (2009);
         "P. Giannozzi et al., J. Phys.:Condens. Matter 29 465901 (2017);
          URL http://www.quantum-espresso.org", 
     in publications or presentations arising from this work. More details at
     http://www.quantum-espresso.org/quote

     Parallel version (MPI), running on     1 processors

     MPI processes distributed on     1 nodes
     Reading input from wd/configs/1/config_0002.in
Warning: card &IONS ignored
Warning: card ION_DYNAMICS = 'BFGS', ignored
Warning: card / ignored
Warning: card &CELL ignored
Warning: card CELL_DYNAMICS = 'BFGS', ignored
Warning: card CELL_FACTOR = 2.0, ignored
Warning: card PRESS = 0.0, ignored
Warning: card / ignored

     Current dimensions of program PWSCF are:
     Max number of different atomic species (ntypx) = 10
     Max number of k-points (npk) =  40000
     Max angular momentum in pseudopotentials (lmaxx) =  3
               file Al.pbe-nl-kjpaw_psl.1.0.0.UPF: wavefunction(s)  3S 3P renormalized

     Subspace diagonalization in iterative solution of the eigenvalue problem:
     a serial algorithm will be used


     G-vector sticks info
     --------------------
     sticks:   dense  smooth     PW     G-vecs:    dense   smooth      PW
     Sum         489     377    129                 8025     5575    1045



     bravais-lattice index     =            0
     lattice parameter (alat)  =       6.9347  a.u.
     unit-cell volume          =     333.4916 (a.u.)^3
     number of atoms/cell      =            3
     number of atomic types    =            1
     number of electrons       =         9.00
     number of Kohn-Sham states=            9
     kinetic-energy cutoff     =      25.0000  Ry
     charge density cutoff     =     126.0000  Ry
     convergence threshold     =      1.0E-06
     mixing beta               =       0.1000
     number of iterations used =           10  TF        mixing
     Exchange-correlation      = SLA PW PBX PBC ( 1  4  3  4 0 0)

     celldm(1)=   6.934710  celldm(2)=   0.000000  celldm(3)=   0.000000
     celldm(4)=   0.000000  celldm(5)=   0.000000  celldm(6)=   0.000000

     crystal axes: (cart. coord. in units of alat)
               a(1) = (   1.000000   0.000000   0.000000 )  
               a(2) = (   0.000000   1.000000   0.000000 )  
               a(3) = (   0.000000   0.000000   1.000000 )  

     reciprocal axes: (cart. coord. in units 2 pi/alat)
               b(1) = (  1.000000  0.000000  0.000000 )  
               b(2) = (  0.000000  1.000000  0.000000 )  
               b(3) = (  0.000000  0.000000  1.000000 )  


     PseudoPot. # 1 for Al read from file:
     /opt/pp/Al.pbe-nl-kjpaw_psl.1.0.0.UPF
     MD5 check sum: 1b67f78b73fe58c7924490f171ce8a1e
     Pseudo is Projector augmented-wave + core cor, Zval =  3.0
     Generated using "atomic" code by A. Dal Corso v.6.3
     Shape of augmentation charge: PSQ
     Using radial grid of 1135 points,  4 beta functions with: 
                l(1) =   0
                l(2) =   0
                l(3) =   1
                l(4) =   1
     Q(r) pseudized with 0 coefficients 


     atomic species   valence    mass     pseudopotential
        Al             3.00    26.98200     Al( 1.00)

     No symmetry found



   Cartesian axes

     site n.     atom                  positions (alat units)
         1           Al  tau(   1) = (  -0.0015859  -0.0014001  -0.0011424  )
         2           Al  tau(   2) = (   0.4989086   0.4977213  -0.0011323  )
         3           Al  tau(   3) = (  -0.0018510   0.4986923   0.4998594  )

     number of k points=    14  Marzari-Vanderbilt smearing, width (Ry)=  0.0200
                       cart. coord. in units 2pi/alat
        k(    1) = (   0.1666667   0.1666667   0.1666667), wk =   0.1481481
        k(    2) = (   0.1666667   0.1666667  -0.5000000), wk =   0.1481481
        k(    3) = (   0.1666667  -0.5000000  -0.5000000), wk =   0.1481481
        k(    4) = (  -0.5000000  -0.5000000  -0.5000000), wk =   0.0740741
        k(    5) = (  -0.1666667  -0.1666667   0.1666667), wk =   0.1481481
        k(    6) = (  -0.1666667   0.1666667  -0.1666667), wk =   0.1481481
        k(    7) = (   0.1666667  -0.1666667  -0.1666667), wk =   0.1481481
        k(    8) = (  -0.1666667   0.1666667   0.5000000), wk =   0.1481481
        k(    9) = (  -0.5000000  -0.1666667   0.1666667), wk =   0.1481481
        k(   10) = (   0.5000000  -0.1666667  -0.1666667), wk =   0.1481481
        k(   11) = (  -0.1666667  -0.5000000   0.1666667), wk =   0.1481481
        k(   12) = (  -0.1666667   0.5000000  -0.1666667), wk =   0.1481481
        k(   13) = (  -0.5000000   0.1666667   0.5000000), wk =   0.1481481
        k(   14) = (  -0.5000000   0.5000000   0.1666667), wk =   0.1481481

     Dense  grid:     8025 G-vectors     FFT dimensions: (  25,  25,  25)

     Smooth grid:     5575 G-vectors     FFT dimensions: (  24,  24,  24)

     Estimated max dynamical RAM per process >      13.06 MB

     Initial potential from superposition of free atoms

     starting charge    8.99313, renormalised to    9.00000
     Starting wfcs are   12 randomized atomic wfcs
     Checking if some PAW data can be deallocated... 

     total cpu time spent up to now is        0.5 secs

     Self-consistent Calculation

     iteration #  1     ecut=    25.00 Ry     beta= 0.10
     Davidson diagonalization with overlap
     ethr =  1.00E-02,  avg # of iterations =  3.4

     Threshold (ethr) on eigenvalues was too large:
     Diagonalizing with lowered threshold

     Davidson diagonalization with overlap
     ethr =  3.98E-04,  avg # of iterations =  4.1

     total cpu time spent up to now is        0.9 secs

     total energy              =    -118.44013386 Ry
     Harris-Foulkes estimate   =    -118.44179128 Ry
     estimated scf accuracy    <       0.03574121 Ry

     iteration #  2     ecut=    25.00 Ry     beta= 0.10
     Davidson diagonalization with overlap
     ethr =  3.97E-04,  avg # of iterations =  1.0

     total cpu time spent up to now is        1.1 secs

     total energy              =    -118.42759671 Ry
     Harris-Foulkes estimate   =    -118.44021915 Ry
     estimated scf accuracy    <       0.03052814 Ry

     iteration #  3     ecut=    25.00 Ry     beta= 0.10
     Davidson diagonalization with overlap
     ethr =  3.39E-04,  avg # of iterations =  1.5

     total cpu time spent up to now is        1.3 secs

     total energy              =    -118.43158729 Ry
     Harris-Foulkes estimate   =    -118.43157532 Ry
     estimated scf accuracy    <       0.00039419 Ry

     iteration #  4     ecut=    25.00 Ry     beta= 0.10
     Davidson diagonalization with overlap
     ethr =  4.38E-06,  avg # of iterations =  5.8

     total cpu time spent up to now is        1.5 secs

     total energy              =    -118.43182796 Ry
     Harris-Foulkes estimate   =    -118.43187456 Ry
     estimated scf accuracy    <       0.00037808 Ry

     iteration #  5     ecut=    25.00 Ry     beta= 0.10
     Davidson diagonalization with overlap
     ethr =  4.20E-06,  avg # of iterations =  1.0

     total cpu time spent up to now is        1.7 secs

     total energy              =    -118.43193832 Ry
     Harris-Foulkes estimate   =    -118.43183366 Ry
     estimated scf accuracy    <       0.00027649 Ry

     iteration #  6     ecut=    25.00 Ry     beta= 0.10
     Davidson diagonalization with overlap
     ethr =  3.07E-06,  avg # of iterations =  2.0

     total cpu time spent up to now is        1.9 secs

     total energy              =    -118.43195701 Ry
     Harris-Foulkes estimate   =    -118.43195958 Ry
     estimated scf accuracy    <       0.00001668 Ry

     iteration #  7     ecut=    25.00 Ry     beta= 0.10
     Davidson diagonalization with overlap
     ethr =  1.85E-07,  avg # of iterations =  1.4

     total cpu time spent up to now is        2.1 secs

     total energy              =    -118.43193432 Ry
     Harris-Foulkes estimate   =    -118.43195803 Ry
     estimated scf accuracy    <       0.00001373 Ry

     iteration #  8     ecut=    25.00 Ry     beta= 0.10
     Davidson diagonalization with overlap
     ethr =  1.53E-07,  avg # of iterations =  1.2

     total cpu time spent up to now is        2.3 secs

     total energy              =    -118.43193416 Ry
     Harris-Foulkes estimate   =    -118.43193528 Ry
     estimated scf accuracy    <       0.00000514 Ry

     iteration #  9     ecut=    25.00 Ry     beta= 0.10
     Davidson diagonalization with overlap
     ethr =  5.71E-08,  avg # of iterations =  2.0

     total cpu time spent up to now is        2.5 secs

     End of self-consistent calculation

          k = 0.1667 0.1667 0.1667 (   706 PWs)   bands (ev):

    -2.7463   4.3808   4.3832   4.4702  10.4546  10.4636  11.6841  12.0212
    12.0264

          k = 0.1667 0.1667-0.5000 (   716 PWs)   bands (ev):

    -1.0427   0.5259   5.6904   6.2578   7.0103   8.1902  12.3511  12.8687
    13.5549

          k = 0.1667-0.5000-0.5000 (   692 PWs)   bands (ev):

     0.6802   2.1162   2.1163   3.7734   7.6629   8.8952   8.8953  11.8300
    15.0992

          k =-0.5000-0.5000-0.5000 (   672 PWs)   bands (ev):

     2.1909   4.1050   4.1052   4.1053   4.7973   4.7975   4.7976   8.5128
    21.5992

          k =-0.1667-0.1667 0.1667 (   706 PWs)   bands (ev):

    -2.7463   4.3808   4.3832   4.4703  10.4547  10.4635  11.6841  12.0212
    12.0264

          k =-0.1667 0.1667-0.1667 (   706 PWs)   bands (ev):

    -2.7463   4.3813   4.3827   4.4703  10.4566  10.4616  11.6841  12.0220
    12.0263

          k = 0.1667-0.1667-0.1667 (   706 PWs)   bands (ev):

    -2.7463   4.3813   4.3827   4.4702  10.4565  10.4616  11.6840  12.0217
    12.0262

          k =-0.1667 0.1667 0.5000 (   716 PWs)   bands (ev):

    -1.0427   0.5259   5.6904   6.2578   7.0103   8.1902  12.3511  12.8687
    13.5549

          k =-0.5000-0.1667 0.1667 (   716 PWs)   bands (ev):

    -1.0427   0.5258   5.6905   6.2579   7.0101   8.1901  12.3512  12.8688
    13.5548

          k = 0.5000-0.1667-0.1667 (   716 PWs)   bands (ev):

    -1.0427   0.5258   5.6905   6.2580   7.0101   8.1901  12.3512  12.8688
    13.5548

          k =-0.1667-0.5000 0.1667 (   716 PWs)   bands (ev):

    -1.0427   0.5259   5.6904   6.2579   7.0102   8.1902  12.3511  12.8687
    13.5549

          k =-0.1667 0.5000-0.1667 (   716 PWs)   bands (ev):

    -1.0427   0.5259   5.6904   6.2579   7.0102   8.1902  12.3512  12.8688
    13.5549

          k =-0.5000 0.1667 0.5000 (   692 PWs)   bands (ev):

     0.6802   2.1161   2.1164   3.7733   7.6629   8.8951   8.8953  11.8300
    15.0993

          k =-0.5000 0.5000 0.1667 (   692 PWs)   bands (ev):

     0.6803   2.1162   2.1163   3.7732   7.6631   8.8952   8.8953  11.8300
    15.0993

     the Fermi energy is     7.1910 ev

!    total energy              =    -118.43193470 Ry
     Harris-Foulkes estimate   =    -118.43193498 Ry
     estimated scf accuracy    <       0.00000036 Ry

     total all-electron energy =     -1456.860276 Ry

     The total energy is the sum of the following terms:

     one-electron contribution =       8.85508117 Ry
     hartree contribution      =       0.33045309 Ry
     xc contribution           =      -7.91614111 Ry
     ewald contribution        =     -15.58290969 Ry
     one-center paw contrib.   =    -104.11810556 Ry
     smearing contrib. (-TS)   =      -0.00031261 Ry

     convergence has been achieved in   9 iterations

     Forces acting on atoms (cartesian axes, Ry/au):

     atom    1 type  1   force =     0.00046899   -0.00073636    0.00095307
     atom    2 type  1   force =    -0.00118197    0.00080604    0.00094302
     atom    3 type  1   force =     0.00071298   -0.00006968   -0.00189610

     Total force =     0.002952     Total SCF correction =     0.000066


     Computing stress (Cartesian axis) and pressure

          total   stress  (Ry/bohr**3)                   (kbar)     P=  186.01
   0.00126437  -0.00000004  -0.00000006        185.99     -0.01     -0.01
  -0.00000004   0.00126448   0.00000001         -0.01    186.01      0.00
  -0.00000006   0.00000001   0.00126456         -0.01      0.00    186.02


     Writing output data file OlLYWWZpbjCyMOxp.save/

     init_run     :      0.25s CPU      0.25s WALL (       1 calls)
     electrons    :      1.91s CPU      1.91s WALL (       1 calls)
     forces       :      0.03s CPU      0.03s WALL (       1 calls)
     stress       :      0.06s CPU      0.06s WALL (       1 calls)

     Called by init_run:
     wfcinit      :      0.05s CPU      0.05s WALL (       1 calls)
     potinit      :      0.09s CPU      0.10s WALL (       1 calls)
     hinit0       :      0.10s CPU      0.10s WALL (       1 calls)

     Called by electrons:
     c_bands      :      0.86s CPU      0.86s WALL (      10 calls)
     sum_band     :      0.17s CPU      0.17s WALL (      10 calls)
     v_of_rho     :      0.06s CPU      0.06s WALL (      10 calls)
     newd         :      0.04s CPU      0.04s WALL (      10 calls)
     PAW_pot      :      0.87s CPU      0.88s WALL (      10 calls)
     mix_rho      :      0.00s CPU      0.00s WALL (      10 calls)

     Called by c_bands:
     init_us_2    :      0.03s CPU      0.03s WALL (     322 calls)
     cegterg      :      0.82s CPU      0.82s WALL (     140 calls)

     Called by sum_band:
     sum_band:bec :      0.00s CPU      0.00s WALL (     140 calls)
     addusdens    :      0.03s CPU      0.03s WALL (      10 calls)

     Called by *egterg:
     h_psi        :      0.64s CPU      0.64s WALL (     481 calls)
     s_psi        :      0.05s CPU      0.05s WALL (     481 calls)
     g_psi        :      0.00s CPU      0.00s WALL (     327 calls)
     cdiaghg      :      0.04s CPU      0.04s WALL (     453 calls)

     Called by h_psi:
     h_psi:pot    :      0.64s CPU      0.64s WALL (     481 calls)
     h_psi:calbec :      0.06s CPU      0.06s WALL (     481 calls)
     vloc_psi     :      0.53s CPU      0.54s WALL (     481 calls)
     add_vuspsi   :      0.05s CPU      0.05s WALL (     481 calls)

     General routines
     calbec       :      0.09s CPU      0.09s WALL (     691 calls)
     fft          :      0.01s CPU      0.01s WALL (     154 calls)
     ffts         :      0.01s CPU      0.01s WALL (      20 calls)
     fftw         :      0.57s CPU      0.58s WALL (    7740 calls)
     interpolate  :      0.01s CPU      0.01s WALL (      10 calls)

     Parallel routines

     PWSCF        :      2.53s CPU      2.56s WALL


   This run was terminated on:  17:40:34  19Apr2020            

=------------------------------------------------------------------------------=
   JOB DONE.
=------------------------------------------------------------------------------=
