
     Program PWSCF v.6.4.1 starts on 19Apr2020 at 17:40:38 

     This program is part of the open-source Quantum ESPRESSO suite
     for quantum simulation of materials; please cite
         "P. Giannozzi et al., J. Phys.:Condens. Matter 21 395502 (2009);
         "P. Giannozzi et al., J. Phys.:Condens. Matter 29 465901 (2017);
          URL http://www.quantum-espresso.org", 
     in publications or presentations arising from this work. More details at
     http://www.quantum-espresso.org/quote

     Parallel version (MPI), running on     1 processors

     MPI processes distributed on     1 nodes
     Reading input from wd/configs/1/config_0005.in
Warning: card &IONS ignored
Warning: card ION_DYNAMICS = 'BFGS', ignored
Warning: card / ignored
Warning: card &CELL ignored
Warning: card CELL_DYNAMICS = 'BFGS', ignored
Warning: card CELL_FACTOR = 2.0, ignored
Warning: card PRESS = 0.0, ignored
Warning: card / ignored

     Current dimensions of program PWSCF are:
     Max number of different atomic species (ntypx) = 10
     Max number of k-points (npk) =  40000
     Max angular momentum in pseudopotentials (lmaxx) =  3
               file Al.pbe-nl-kjpaw_psl.1.0.0.UPF: wavefunction(s)  3S 3P renormalized

     Subspace diagonalization in iterative solution of the eigenvalue problem:
     a serial algorithm will be used


     G-vector sticks info
     --------------------
     sticks:   dense  smooth     PW     G-vecs:    dense   smooth      PW
     Sum         233     185     69                 2601     1863     461



     bravais-lattice index     =            0
     lattice parameter (alat)  =       4.8135  a.u.
     unit-cell volume          =     111.5281 (a.u.)^3
     number of atoms/cell      =            1
     number of atomic types    =            1
     number of electrons       =         3.00
     number of Kohn-Sham states=            6
     kinetic-energy cutoff     =      25.0000  Ry
     charge density cutoff     =     126.0000  Ry
     convergence threshold     =      1.0E-06
     mixing beta               =       0.1000
     number of iterations used =           10  TF        mixing
     Exchange-correlation      = SLA PW PBX PBC ( 1  4  3  4 0 0)

     celldm(1)=   4.813506  celldm(2)=   0.000000  celldm(3)=   0.000000
     celldm(4)=   0.000000  celldm(5)=   0.000000  celldm(6)=   0.000000

     crystal axes: (cart. coord. in units of alat)
               a(1) = (   1.000000   0.000000   0.000000 )  
               a(2) = (   0.000000   1.000000   0.000000 )  
               a(3) = (   0.000000   0.000000   1.000000 )  

     reciprocal axes: (cart. coord. in units 2 pi/alat)
               b(1) = (  1.000000  0.000000  0.000000 )  
               b(2) = (  0.000000  1.000000  0.000000 )  
               b(3) = (  0.000000  0.000000  1.000000 )  


     PseudoPot. # 1 for Al read from file:
     /opt/pp/Al.pbe-nl-kjpaw_psl.1.0.0.UPF
     MD5 check sum: 1b67f78b73fe58c7924490f171ce8a1e
     Pseudo is Projector augmented-wave + core cor, Zval =  3.0
     Generated using "atomic" code by A. Dal Corso v.6.3
     Shape of augmentation charge: PSQ
     Using radial grid of 1135 points,  4 beta functions with: 
                l(1) =   0
                l(2) =   0
                l(3) =   1
                l(4) =   1
     Q(r) pseudized with 0 coefficients 


     atomic species   valence    mass     pseudopotential
        Al             3.00    26.98200     Al( 1.00)

     No symmetry found



   Cartesian axes

     site n.     atom                  positions (alat units)
         1           Al  tau(   1) = (  -0.0022848   0.4979828   0.4983542  )

     number of k points=    14  Marzari-Vanderbilt smearing, width (Ry)=  0.0200
                       cart. coord. in units 2pi/alat
        k(    1) = (   0.1666667   0.1666667   0.1666667), wk =   0.1481481
        k(    2) = (   0.1666667   0.1666667  -0.5000000), wk =   0.1481481
        k(    3) = (   0.1666667  -0.5000000  -0.5000000), wk =   0.1481481
        k(    4) = (  -0.5000000  -0.5000000  -0.5000000), wk =   0.0740741
        k(    5) = (  -0.1666667  -0.1666667   0.1666667), wk =   0.1481481
        k(    6) = (  -0.1666667   0.1666667  -0.1666667), wk =   0.1481481
        k(    7) = (   0.1666667  -0.1666667  -0.1666667), wk =   0.1481481
        k(    8) = (  -0.1666667   0.1666667   0.5000000), wk =   0.1481481
        k(    9) = (  -0.5000000  -0.1666667   0.1666667), wk =   0.1481481
        k(   10) = (   0.5000000  -0.1666667  -0.1666667), wk =   0.1481481
        k(   11) = (  -0.1666667  -0.5000000   0.1666667), wk =   0.1481481
        k(   12) = (  -0.1666667   0.5000000  -0.1666667), wk =   0.1481481
        k(   13) = (  -0.5000000   0.1666667   0.5000000), wk =   0.1481481
        k(   14) = (  -0.5000000   0.5000000   0.1666667), wk =   0.1481481

     Dense  grid:     2601 G-vectors     FFT dimensions: (  18,  18,  18)

     Smooth grid:     1863 G-vectors     FFT dimensions: (  15,  15,  15)

     Estimated max dynamical RAM per process >       4.17 MB

     Initial potential from superposition of free atoms

     starting charge    2.99771, renormalised to    3.00000
     Starting wfcs are    4 randomized atomic wfcs +    2 random wfcs
     Checking if some PAW data can be deallocated... 

     total cpu time spent up to now is        0.4 secs

     Self-consistent Calculation

     iteration #  1     ecut=    25.00 Ry     beta= 0.10
     Davidson diagonalization with overlap
     ethr =  1.00E-02,  avg # of iterations =  6.0

     Threshold (ethr) on eigenvalues was too large:
     Diagonalizing with lowered threshold

     Davidson diagonalization with overlap
     ethr =  9.75E-05,  avg # of iterations =  2.6

     total cpu time spent up to now is        0.5 secs

     total energy              =     -39.46610875 Ry
     Harris-Foulkes estimate   =     -39.46616366 Ry
     estimated scf accuracy    <       0.00285660 Ry

     iteration #  2     ecut=    25.00 Ry     beta= 0.10
     Davidson diagonalization with overlap
     ethr =  9.52E-05,  avg # of iterations =  1.0

     total cpu time spent up to now is        0.5 secs

     total energy              =     -39.46575431 Ry
     Harris-Foulkes estimate   =     -39.46611243 Ry
     estimated scf accuracy    <       0.00245324 Ry

     iteration #  3     ecut=    25.00 Ry     beta= 0.10
     Davidson diagonalization with overlap
     ethr =  8.18E-05,  avg # of iterations =  1.0

     total cpu time spent up to now is        0.6 secs

     total energy              =     -39.46584753 Ry
     Harris-Foulkes estimate   =     -39.46585238 Ry
     estimated scf accuracy    <       0.00001598 Ry

     iteration #  4     ecut=    25.00 Ry     beta= 0.10
     Davidson diagonalization with overlap
     ethr =  5.33E-07,  avg # of iterations =  2.5

     total cpu time spent up to now is        0.6 secs

     total energy              =     -39.46583077 Ry
     Harris-Foulkes estimate   =     -39.46585247 Ry
     estimated scf accuracy    <       0.00001208 Ry

     iteration #  5     ecut=    25.00 Ry     beta= 0.10
     Davidson diagonalization with overlap
     ethr =  4.03E-07,  avg # of iterations =  1.1

     total cpu time spent up to now is        0.7 secs

     total energy              =     -39.46582288 Ry
     Harris-Foulkes estimate   =     -39.46583150 Ry
     estimated scf accuracy    <       0.00000435 Ry

     iteration #  6     ecut=    25.00 Ry     beta= 0.10
     Davidson diagonalization with overlap
     ethr =  1.45E-07,  avg # of iterations =  1.9

     total cpu time spent up to now is        0.7 secs

     End of self-consistent calculation

          k = 0.1667 0.1667 0.1667 (   227 PWs)   bands (ev):

    -1.4623  11.8276  11.8276  15.3672  24.8054  24.8054

          k = 0.1667 0.1667-0.5000 (   232 PWs)   bands (ev):

     3.1501   3.6821  15.1135  18.1076  18.4299  19.6688

          k = 0.1667-0.5000-0.5000 (   244 PWs)   bands (ev):

     7.3620   7.3622   8.4847   9.7940  21.3550  21.3551

          k =-0.5000-0.5000-0.5000 (   208 PWs)   bands (ev):

    10.9989  10.9991  10.9992  13.1220  13.1221  13.1223

          k =-0.1667-0.1667 0.1667 (   227 PWs)   bands (ev):

    -1.4623  11.8276  11.8276  15.3672  24.8054  24.8054

          k =-0.1667 0.1667-0.1667 (   227 PWs)   bands (ev):

    -1.4623  11.8276  11.8276  15.3672  24.8054  24.8054

          k = 0.1667-0.1667-0.1667 (   227 PWs)   bands (ev):

    -1.4623  11.8276  11.8276  15.3672  24.8054  24.8054

          k =-0.1667 0.1667 0.5000 (   232 PWs)   bands (ev):

     3.1501   3.6821  15.1135  18.1076  18.4299  19.6688

          k =-0.5000-0.1667 0.1667 (   232 PWs)   bands (ev):

     3.1502   3.6820  15.1136  18.1075  18.4298  19.6689

          k = 0.5000-0.1667-0.1667 (   232 PWs)   bands (ev):

     3.1502   3.6820  15.1136  18.1075  18.4298  19.6689

          k =-0.1667-0.5000 0.1667 (   232 PWs)   bands (ev):

     3.1500   3.6822  15.1134  18.1076  18.4300  19.6688

          k =-0.1667 0.5000-0.1667 (   232 PWs)   bands (ev):

     3.1500   3.6822  15.1134  18.1076  18.4300  19.6688

          k =-0.5000 0.1667 0.5000 (   244 PWs)   bands (ev):

     7.3620   7.3622   8.4850   9.7938  21.3550  21.3551

          k =-0.5000 0.5000 0.1667 (   244 PWs)   bands (ev):

     7.3619   7.3622   8.4849   9.7939  21.3549  21.3552

     the Fermi energy is     7.4758 ev

!    total energy              =     -39.46582429 Ry
     Harris-Foulkes estimate   =     -39.46582405 Ry
     estimated scf accuracy    <       0.00000025 Ry

     total all-electron energy =      -485.608605 Ry

     The total energy is the sum of the following terms:

     one-electron contribution =       3.13826034 Ry
     hartree contribution      =       0.02103340 Ry
     xc contribution           =      -2.61288262 Ry
     ewald contribution        =      -5.30500619 Ry
     one-center paw contrib.   =     -34.70534363 Ry
     smearing contrib. (-TS)   =      -0.00188558 Ry

     convergence has been achieved in   6 iterations

     Forces acting on atoms (cartesian axes, Ry/au):

     atom    1 type  1   force =     0.00000000    0.00000000    0.00000000

     Total force =     0.000000     Total SCF correction =     0.000074


     Computing stress (Cartesian axis) and pressure

          total   stress  (Ry/bohr**3)                   (kbar)     P=  151.97
   0.00103181  -0.00000001  -0.00000002        151.78     -0.00     -0.00
  -0.00000001   0.00103418  -0.00000003         -0.00    152.13     -0.00
  -0.00000002  -0.00000003   0.00103333         -0.00     -0.00    152.01


     Writing output data file UBYNSxtnZcsVkVrQ.save/

     init_run     :      0.11s CPU      0.12s WALL (       1 calls)
     electrons    :      0.29s CPU      0.30s WALL (       1 calls)
     forces       :      0.01s CPU      0.01s WALL (       1 calls)
     stress       :      0.02s CPU      0.02s WALL (       1 calls)

     Called by init_run:
     wfcinit      :      0.00s CPU      0.00s WALL (       1 calls)
     potinit      :      0.03s CPU      0.04s WALL (       1 calls)
     hinit0       :      0.08s CPU      0.08s WALL (       1 calls)

     Called by electrons:
     c_bands      :      0.07s CPU      0.08s WALL (       7 calls)
     sum_band     :      0.02s CPU      0.02s WALL (       7 calls)
     v_of_rho     :      0.02s CPU      0.02s WALL (       7 calls)
     newd         :      0.01s CPU      0.01s WALL (       7 calls)
     PAW_pot      :      0.20s CPU      0.22s WALL (       7 calls)
     mix_rho      :      0.00s CPU      0.00s WALL (       7 calls)

     Called by c_bands:
     init_us_2    :      0.01s CPU      0.01s WALL (     238 calls)
     cegterg      :      0.07s CPU      0.07s WALL (      98 calls)

     Called by sum_band:
     sum_band:bec :      0.00s CPU      0.00s WALL (      98 calls)
     addusdens    :      0.01s CPU      0.01s WALL (       7 calls)

     Called by *egterg:
     h_psi        :      0.04s CPU      0.04s WALL (     338 calls)
     s_psi        :      0.00s CPU      0.00s WALL (     338 calls)
     g_psi        :      0.00s CPU      0.00s WALL (     226 calls)
     cdiaghg      :      0.01s CPU      0.01s WALL (     310 calls)

     Called by h_psi:
     h_psi:pot    :      0.04s CPU      0.04s WALL (     338 calls)
     h_psi:calbec :      0.00s CPU      0.00s WALL (     338 calls)
     vloc_psi     :      0.03s CPU      0.03s WALL (     338 calls)
     add_vuspsi   :      0.00s CPU      0.00s WALL (     338 calls)

     General routines
     calbec       :      0.01s CPU      0.01s WALL (     506 calls)
     fft          :      0.01s CPU      0.01s WALL (     115 calls)
     ffts         :      0.00s CPU      0.00s WALL (      14 calls)
     fftw         :      0.03s CPU      0.03s WALL (    3710 calls)
     interpolate  :      0.00s CPU      0.00s WALL (       7 calls)

     Parallel routines

     PWSCF        :      0.73s CPU      0.76s WALL


   This run was terminated on:  17:40:39  19Apr2020            

=------------------------------------------------------------------------------=
   JOB DONE.
=------------------------------------------------------------------------------=
