
     Program PWSCF v.6.4.1 starts on 19Apr2020 at 17:40:34 

     This program is part of the open-source Quantum ESPRESSO suite
     for quantum simulation of materials; please cite
         "P. Giannozzi et al., J. Phys.:Condens. Matter 21 395502 (2009);
         "P. Giannozzi et al., J. Phys.:Condens. Matter 29 465901 (2017);
          URL http://www.quantum-espresso.org", 
     in publications or presentations arising from this work. More details at
     http://www.quantum-espresso.org/quote

     Parallel version (MPI), running on     1 processors

     MPI processes distributed on     1 nodes
     Reading input from wd/configs/1/config_0003.in
Warning: card &IONS ignored
Warning: card ION_DYNAMICS = 'BFGS', ignored
Warning: card / ignored
Warning: card &CELL ignored
Warning: card CELL_DYNAMICS = 'BFGS', ignored
Warning: card CELL_FACTOR = 2.0, ignored
Warning: card PRESS = 0.0, ignored
Warning: card / ignored

     Current dimensions of program PWSCF are:
     Max number of different atomic species (ntypx) = 10
     Max number of k-points (npk) =  40000
     Max angular momentum in pseudopotentials (lmaxx) =  3
               file Al.pbe-nl-kjpaw_psl.1.0.0.UPF: wavefunction(s)  3S 3P renormalized

     Subspace diagonalization in iterative solution of the eigenvalue problem:
     a serial algorithm will be used


     G-vector sticks info
     --------------------
     sticks:   dense  smooth     PW     G-vecs:    dense   smooth      PW
     Sum         489     385    129                 8025     5695    1045



     bravais-lattice index     =            0
     lattice parameter (alat)  =       6.9426  a.u.
     unit-cell volume          =     334.6337 (a.u.)^3
     number of atoms/cell      =            3
     number of atomic types    =            1
     number of electrons       =         9.00
     number of Kohn-Sham states=            9
     kinetic-energy cutoff     =      25.0000  Ry
     charge density cutoff     =     126.0000  Ry
     convergence threshold     =      1.0E-06
     mixing beta               =       0.1000
     number of iterations used =           10  TF        mixing
     Exchange-correlation      = SLA PW PBX PBC ( 1  4  3  4 0 0)

     celldm(1)=   6.942618  celldm(2)=   0.000000  celldm(3)=   0.000000
     celldm(4)=   0.000000  celldm(5)=   0.000000  celldm(6)=   0.000000

     crystal axes: (cart. coord. in units of alat)
               a(1) = (   1.000000   0.000000   0.000000 )  
               a(2) = (   0.000000   1.000000   0.000000 )  
               a(3) = (   0.000000   0.000000   1.000000 )  

     reciprocal axes: (cart. coord. in units 2 pi/alat)
               b(1) = (  1.000000  0.000000  0.000000 )  
               b(2) = (  0.000000  1.000000  0.000000 )  
               b(3) = (  0.000000  0.000000  1.000000 )  


     PseudoPot. # 1 for Al read from file:
     /opt/pp/Al.pbe-nl-kjpaw_psl.1.0.0.UPF
     MD5 check sum: 1b67f78b73fe58c7924490f171ce8a1e
     Pseudo is Projector augmented-wave + core cor, Zval =  3.0
     Generated using "atomic" code by A. Dal Corso v.6.3
     Shape of augmentation charge: PSQ
     Using radial grid of 1135 points,  4 beta functions with: 
                l(1) =   0
                l(2) =   0
                l(3) =   1
                l(4) =   1
     Q(r) pseudized with 0 coefficients 


     atomic species   valence    mass     pseudopotential
        Al             3.00    26.98200     Al( 1.00)

     No symmetry found



   Cartesian axes

     site n.     atom                  positions (alat units)
         1           Al  tau(   1) = (  -0.0015841  -0.0013985  -0.0011411  )
         2           Al  tau(   2) = (   0.4989098  -0.0022762   0.4988690  )
         3           Al  tau(   3) = (  -0.0018489   0.4986938   0.4998596  )

     number of k points=    14  Marzari-Vanderbilt smearing, width (Ry)=  0.0200
                       cart. coord. in units 2pi/alat
        k(    1) = (   0.1666667   0.1666667   0.1666667), wk =   0.1481481
        k(    2) = (   0.1666667   0.1666667  -0.5000000), wk =   0.1481481
        k(    3) = (   0.1666667  -0.5000000  -0.5000000), wk =   0.1481481
        k(    4) = (  -0.5000000  -0.5000000  -0.5000000), wk =   0.0740741
        k(    5) = (  -0.1666667  -0.1666667   0.1666667), wk =   0.1481481
        k(    6) = (  -0.1666667   0.1666667  -0.1666667), wk =   0.1481481
        k(    7) = (   0.1666667  -0.1666667  -0.1666667), wk =   0.1481481
        k(    8) = (  -0.1666667   0.1666667   0.5000000), wk =   0.1481481
        k(    9) = (  -0.5000000  -0.1666667   0.1666667), wk =   0.1481481
        k(   10) = (   0.5000000  -0.1666667  -0.1666667), wk =   0.1481481
        k(   11) = (  -0.1666667  -0.5000000   0.1666667), wk =   0.1481481
        k(   12) = (  -0.1666667   0.5000000  -0.1666667), wk =   0.1481481
        k(   13) = (  -0.5000000   0.1666667   0.5000000), wk =   0.1481481
        k(   14) = (  -0.5000000   0.5000000   0.1666667), wk =   0.1481481

     Dense  grid:     8025 G-vectors     FFT dimensions: (  25,  25,  25)

     Smooth grid:     5695 G-vectors     FFT dimensions: (  24,  24,  24)

     Estimated max dynamical RAM per process >      13.07 MB

     Initial potential from superposition of free atoms

     starting charge    8.99313, renormalised to    9.00000
     Starting wfcs are   12 randomized atomic wfcs
     Checking if some PAW data can be deallocated... 

     total cpu time spent up to now is        0.6 secs

     Self-consistent Calculation

     iteration #  1     ecut=    25.00 Ry     beta= 0.10
     Davidson diagonalization with overlap
     ethr =  1.00E-02,  avg # of iterations =  3.4

     Threshold (ethr) on eigenvalues was too large:
     Diagonalizing with lowered threshold

     Davidson diagonalization with overlap
     ethr =  3.98E-04,  avg # of iterations =  4.5

     total cpu time spent up to now is        1.0 secs

     total energy              =    -118.44150343 Ry
     Harris-Foulkes estimate   =    -118.44315527 Ry
     estimated scf accuracy    <       0.03571023 Ry

     iteration #  2     ecut=    25.00 Ry     beta= 0.10
     Davidson diagonalization with overlap
     ethr =  3.97E-04,  avg # of iterations =  1.0

     total cpu time spent up to now is        1.1 secs

     total energy              =    -118.42906789 Ry
     Harris-Foulkes estimate   =    -118.44158818 Ry
     estimated scf accuracy    <       0.03046260 Ry

     iteration #  3     ecut=    25.00 Ry     beta= 0.10
     Davidson diagonalization with overlap
     ethr =  3.38E-04,  avg # of iterations =  1.4

     total cpu time spent up to now is        1.3 secs

     total energy              =    -118.43300165 Ry
     Harris-Foulkes estimate   =    -118.43298169 Ry
     estimated scf accuracy    <       0.00040191 Ry

     iteration #  4     ecut=    25.00 Ry     beta= 0.10
     Davidson diagonalization with overlap
     ethr =  4.47E-06,  avg # of iterations =  5.4

     total cpu time spent up to now is        1.6 secs

     total energy              =    -118.43326099 Ry
     Harris-Foulkes estimate   =    -118.43331138 Ry
     estimated scf accuracy    <       0.00038950 Ry

     iteration #  5     ecut=    25.00 Ry     beta= 0.10
     Davidson diagonalization with overlap
     ethr =  4.33E-06,  avg # of iterations =  1.0

     total cpu time spent up to now is        1.8 secs

     total energy              =    -118.43336292 Ry
     Harris-Foulkes estimate   =    -118.43326640 Ry
     estimated scf accuracy    <       0.00027317 Ry

     iteration #  6     ecut=    25.00 Ry     beta= 0.10
     Davidson diagonalization with overlap
     ethr =  3.04E-06,  avg # of iterations =  2.0

     total cpu time spent up to now is        2.0 secs

     total energy              =    -118.43338286 Ry
     Harris-Foulkes estimate   =    -118.43338386 Ry
     estimated scf accuracy    <       0.00001595 Ry

     iteration #  7     ecut=    25.00 Ry     beta= 0.10
     Davidson diagonalization with overlap
     ethr =  1.77E-07,  avg # of iterations =  1.6

     total cpu time spent up to now is        2.1 secs

     total energy              =    -118.43336113 Ry
     Harris-Foulkes estimate   =    -118.43338406 Ry
     estimated scf accuracy    <       0.00001361 Ry

     iteration #  8     ecut=    25.00 Ry     beta= 0.10
     Davidson diagonalization with overlap
     ethr =  1.51E-07,  avg # of iterations =  1.3

     total cpu time spent up to now is        2.3 secs

     total energy              =    -118.43336256 Ry
     Harris-Foulkes estimate   =    -118.43336215 Ry
     estimated scf accuracy    <       0.00000484 Ry

     iteration #  9     ecut=    25.00 Ry     beta= 0.10
     Davidson diagonalization with overlap
     ethr =  5.38E-08,  avg # of iterations =  1.9

     total cpu time spent up to now is        2.5 secs

     End of self-consistent calculation

          k = 0.1667 0.1667 0.1667 (   706 PWs)   bands (ev):

    -2.7607   4.3508   4.3516   4.4454  10.4187  10.4215  11.6487  11.9725
    11.9737

          k = 0.1667 0.1667-0.5000 (   716 PWs)   bands (ev):

    -1.0617   0.5057   5.6613   6.2201   6.9794   8.1555  12.3108  12.8230
    13.5104

          k = 0.1667-0.5000-0.5000 (   692 PWs)   bands (ev):

     0.6583   2.0897   2.0898   3.7517   7.6253   8.8562   8.8563  11.7972
    15.0426

          k =-0.5000-0.5000-0.5000 (   672 PWs)   bands (ev):

     2.1691   4.0700   4.0701   4.0702   4.7709   4.7711   4.7712   8.4896
    21.5427

          k =-0.1667-0.1667 0.1667 (   706 PWs)   bands (ev):

    -2.7607   4.3497   4.3528   4.4453  10.4143  10.4259  11.6486  11.9704
    11.9757

          k =-0.1667 0.1667-0.1667 (   706 PWs)   bands (ev):

    -2.7607   4.3492   4.3532   4.4454  10.4124  10.4278  11.6486  11.9695
    11.9767

          k = 0.1667-0.1667-0.1667 (   706 PWs)   bands (ev):

    -2.7607   4.3511   4.3513   4.4453  10.4196  10.4206  11.6486  11.9727
    11.9734

          k =-0.1667 0.1667 0.5000 (   716 PWs)   bands (ev):

    -1.0617   0.5057   5.6614   6.2201   6.9793   8.1555  12.3107  12.8230
    13.5104

          k =-0.5000-0.1667 0.1667 (   716 PWs)   bands (ev):

    -1.0617   0.5056   5.6614   6.2201   6.9793   8.1554  12.3108  12.8230
    13.5103

          k = 0.5000-0.1667-0.1667 (   716 PWs)   bands (ev):

    -1.0617   0.5056   5.6614   6.2201   6.9793   8.1554  12.3108  12.8230
    13.5103

          k =-0.1667-0.5000 0.1667 (   716 PWs)   bands (ev):

    -1.0617   0.5058   5.6613   6.2200   6.9794   8.1556  12.3107  12.8229
    13.5104

          k =-0.1667 0.5000-0.1667 (   716 PWs)   bands (ev):

    -1.0617   0.5058   5.6613   6.2200   6.9794   8.1556  12.3107  12.8230
    13.5104

          k =-0.5000 0.1667 0.5000 (   692 PWs)   bands (ev):

     0.6583   2.0897   2.0898   3.7515   7.6254   8.8562   8.8563  11.7971
    15.0427

          k =-0.5000 0.5000 0.1667 (   692 PWs)   bands (ev):

     0.6583   2.0897   2.0899   3.7516   7.6254   8.8562   8.8563  11.7971
    15.0426

     the Fermi energy is     7.1601 ev

!    total energy              =    -118.43336303 Ry
     Harris-Foulkes estimate   =    -118.43336329 Ry
     estimated scf accuracy    <       0.00000042 Ry

     total all-electron energy =     -1456.861705 Ry

     The total energy is the sum of the following terms:

     one-electron contribution =       8.82839776 Ry
     hartree contribution      =       0.33106145 Ry
     xc contribution           =      -7.91061221 Ry
     ewald contribution        =     -15.56517464 Ry
     one-center paw contrib.   =    -104.11671803 Ry
     smearing contrib. (-TS)   =      -0.00031737 Ry

     convergence has been achieved in   9 iterations

     Forces acting on atoms (cartesian axes, Ry/au):

     atom    1 type  1   force =     0.00046443    0.00013437    0.00094638
     atom    2 type  1   force =    -0.00116834    0.00088154   -0.00004455
     atom    3 type  1   force =     0.00070392   -0.00101591   -0.00090183

     Total force =     0.002369     Total SCF correction =     0.000063


     Computing stress (Cartesian axis) and pressure

          total   stress  (Ry/bohr**3)                   (kbar)     P=  181.41
   0.00123311  -0.00000006   0.00000003        181.40     -0.01      0.00
  -0.00000006   0.00123338   0.00000001         -0.01    181.44      0.00
   0.00000003   0.00000001   0.00123319          0.00      0.00    181.41


     Writing output data file oUGBjhssoeANGdGM.save/

     init_run     :      0.25s CPU      0.26s WALL (       1 calls)
     electrons    :      1.91s CPU      1.92s WALL (       1 calls)
     forces       :      0.03s CPU      0.03s WALL (       1 calls)
     stress       :      0.07s CPU      0.07s WALL (       1 calls)

     Called by init_run:
     wfcinit      :      0.05s CPU      0.05s WALL (       1 calls)
     potinit      :      0.09s CPU      0.10s WALL (       1 calls)
     hinit0       :      0.10s CPU      0.10s WALL (       1 calls)

     Called by electrons:
     c_bands      :      0.86s CPU      0.87s WALL (      10 calls)
     sum_band     :      0.16s CPU      0.17s WALL (      10 calls)
     v_of_rho     :      0.05s CPU      0.05s WALL (      10 calls)
     newd         :      0.03s CPU      0.04s WALL (      10 calls)
     PAW_pot      :      0.88s CPU      0.89s WALL (      10 calls)
     mix_rho      :      0.00s CPU      0.00s WALL (      10 calls)

     Called by c_bands:
     init_us_2    :      0.03s CPU      0.03s WALL (     322 calls)
     cegterg      :      0.82s CPU      0.83s WALL (     140 calls)

     Called by sum_band:
     sum_band:bec :      0.00s CPU      0.00s WALL (     140 calls)
     addusdens    :      0.03s CPU      0.03s WALL (      10 calls)

     Called by *egterg:
     h_psi        :      0.64s CPU      0.65s WALL (     484 calls)
     s_psi        :      0.05s CPU      0.05s WALL (     484 calls)
     g_psi        :      0.00s CPU      0.00s WALL (     330 calls)
     cdiaghg      :      0.04s CPU      0.04s WALL (     456 calls)

     Called by h_psi:
     h_psi:pot    :      0.64s CPU      0.64s WALL (     484 calls)
     h_psi:calbec :      0.06s CPU      0.06s WALL (     484 calls)
     vloc_psi     :      0.54s CPU      0.54s WALL (     484 calls)
     add_vuspsi   :      0.05s CPU      0.05s WALL (     484 calls)

     General routines
     calbec       :      0.09s CPU      0.09s WALL (     694 calls)
     fft          :      0.01s CPU      0.01s WALL (     154 calls)
     ffts         :      0.01s CPU      0.01s WALL (      20 calls)
     fftw         :      0.57s CPU      0.58s WALL (    7710 calls)
     interpolate  :      0.01s CPU      0.01s WALL (      10 calls)

     Parallel routines

     PWSCF        :      2.55s CPU      2.63s WALL


   This run was terminated on:  17:40:37  19Apr2020            

=------------------------------------------------------------------------------=
   JOB DONE.
=------------------------------------------------------------------------------=
