
     Program PWSCF v.6.4.1 starts on 19Mar2020 at  4:15:14 

     This program is part of the open-source Quantum ESPRESSO suite
     for quantum simulation of materials; please cite
         "P. Giannozzi et al., J. Phys.:Condens. Matter 21 395502 (2009);
         "P. Giannozzi et al., J. Phys.:Condens. Matter 29 465901 (2017);
          URL http://www.quantum-espresso.org", 
     in publications or presentations arising from this work. More details at
     http://www.quantum-espresso.org/quote

     Parallel version (MPI), running on     1 processors

     MPI processes distributed on     1 nodes
     Reading input from wd/configs/1/config_0001.in
Warning: card &IONS ignored
Warning: card ION_DYNAMICS = 'BFGS', ignored
Warning: card / ignored
Warning: card &CELL ignored
Warning: card CELL_DYNAMICS = 'BFGS', ignored
Warning: card CELL_FACTOR = 2.0, ignored
Warning: card PRESS = 0.0, ignored
Warning: card / ignored

     Current dimensions of program PWSCF are:
     Max number of different atomic species (ntypx) = 10
     Max number of k-points (npk) =  40000
     Max angular momentum in pseudopotentials (lmaxx) =  3
               file Al.pbe-nl-kjpaw_psl.1.0.0.UPF: wavefunction(s)  3S 3P renormalized

     Subspace diagonalization in iterative solution of the eigenvalue problem:
     a serial algorithm will be used


     G-vector sticks info
     --------------------
     sticks:   dense  smooth     PW     G-vecs:    dense   smooth      PW
     Sum         593     465    145                10779     7497    1365



     bravais-lattice index     =            0
     lattice parameter (alat)  =       7.6379  a.u.
     unit-cell volume          =     445.5769 (a.u.)^3
     number of atoms/cell      =            8
     number of atomic types    =            1
     number of electrons       =        24.00
     number of Kohn-Sham states=           16
     kinetic-energy cutoff     =      25.0000  Ry
     charge density cutoff     =     126.0000  Ry
     convergence threshold     =      1.0E-06
     mixing beta               =       0.1000
     number of iterations used =           10  TF        mixing
     Exchange-correlation      = SLA PW PBX PBC ( 1  4  3  4 0 0)

     celldm(1)=   7.637904  celldm(2)=   0.000000  celldm(3)=   0.000000
     celldm(4)=   0.000000  celldm(5)=   0.000000  celldm(6)=   0.000000

     crystal axes: (cart. coord. in units of alat)
               a(1) = (   1.000000   0.000000   0.000000 )  
               a(2) = (   0.000000   1.000000   0.000000 )  
               a(3) = (   0.000000   0.000000   1.000000 )  

     reciprocal axes: (cart. coord. in units 2 pi/alat)
               b(1) = (  1.000000  0.000000  0.000000 )  
               b(2) = (  0.000000  1.000000  0.000000 )  
               b(3) = (  0.000000  0.000000  1.000000 )  


     PseudoPot. # 1 for Al read from file:
     /opt/pp/Al.pbe-nl-kjpaw_psl.1.0.0.UPF
     MD5 check sum: 1b67f78b73fe58c7924490f171ce8a1e
     Pseudo is Projector augmented-wave + core cor, Zval =  3.0
     Generated using "atomic" code by A. Dal Corso v.6.3
     Shape of augmentation charge: PSQ
     Using radial grid of 1135 points,  4 beta functions with: 
                l(1) =   0
                l(2) =   0
                l(3) =   1
                l(4) =   1
     Q(r) pseudized with 0 coefficients 


     atomic species   valence    mass     pseudopotential
        Al             3.00    26.98200     Al( 1.00)

     No symmetry found



   Cartesian axes

     site n.     atom                  positions (alat units)
         1           Al  tau(   1) = (  -0.0014399  -0.0012712  -0.0010372  )
         2           Al  tau(   2) = (   0.4990090   0.4979310  -0.0010281  )
         3           Al  tau(   3) = (   0.4983194  -0.0011873   0.4998723  )
         4           Al  tau(   4) = (  -0.0013892   0.4995653   0.4994253  )
         5           Al  tau(   5) = (   0.2497137   0.2496989   0.2482148  )
         6           Al  tau(   6) = (   0.7491683   0.7480213   0.2487051  )
         7           Al  tau(   7) = (   0.2488019   0.7493061   0.7482430  )
         8           Al  tau(   8) = (   0.7489103   0.2491451   0.7495309  )

     number of k points=    14  Marzari-Vanderbilt smearing, width (Ry)=  0.0200
                       cart. coord. in units 2pi/alat
        k(    1) = (   0.1666667   0.1666667   0.1666667), wk =   0.1481481
        k(    2) = (   0.1666667   0.1666667  -0.5000000), wk =   0.1481481
        k(    3) = (   0.1666667  -0.5000000  -0.5000000), wk =   0.1481481
        k(    4) = (  -0.5000000  -0.5000000  -0.5000000), wk =   0.0740741
        k(    5) = (  -0.1666667  -0.1666667   0.1666667), wk =   0.1481481
        k(    6) = (  -0.1666667   0.1666667  -0.1666667), wk =   0.1481481
        k(    7) = (   0.1666667  -0.1666667  -0.1666667), wk =   0.1481481
        k(    8) = (  -0.1666667   0.1666667   0.5000000), wk =   0.1481481
        k(    9) = (  -0.5000000  -0.1666667   0.1666667), wk =   0.1481481
        k(   10) = (   0.5000000  -0.1666667  -0.1666667), wk =   0.1481481
        k(   11) = (  -0.1666667  -0.5000000   0.1666667), wk =   0.1481481
        k(   12) = (  -0.1666667   0.5000000  -0.1666667), wk =   0.1481481
        k(   13) = (  -0.5000000   0.1666667   0.5000000), wk =   0.1481481
        k(   14) = (  -0.5000000   0.5000000   0.1666667), wk =   0.1481481

     Dense  grid:    10779 G-vectors     FFT dimensions: (  27,  27,  27)

     Smooth grid:     7497 G-vectors     FFT dimensions: (  25,  25,  25)

     Estimated max dynamical RAM per process >      21.92 MB

     Initial potential from superposition of free atoms

     starting charge   23.98168, renormalised to   24.00000
     Starting wfcs are   32 randomized atomic wfcs
     Checking if some PAW data can be deallocated... 

     total cpu time spent up to now is        0.9 secs

     Self-consistent Calculation

     iteration #  1     ecut=    25.00 Ry     beta= 0.10
     Davidson diagonalization with overlap
     ethr =  1.00E-02,  avg # of iterations =  4.2

     Threshold (ethr) on eigenvalues was too large:
     Diagonalizing with lowered threshold

     Davidson diagonalization with overlap
     ethr =  1.16E-04,  avg # of iterations =  4.2

     total cpu time spent up to now is        1.9 secs

     total energy              =    -309.93940441 Ry
     Harris-Foulkes estimate   =    -309.95933110 Ry
     estimated scf accuracy    <       0.02584820 Ry

     iteration #  2     ecut=    25.00 Ry     beta= 0.10
     Davidson diagonalization with overlap
     ethr =  1.08E-04,  avg # of iterations =  1.0

     total cpu time spent up to now is        2.4 secs

     total energy              =    -309.89689932 Ry
     Harris-Foulkes estimate   =    -309.93956862 Ry
     estimated scf accuracy    <       0.02198003 Ry

     iteration #  3     ecut=    25.00 Ry     beta= 0.10
     Davidson diagonalization with overlap
     ethr =  9.16E-05,  avg # of iterations =  2.0

     total cpu time spent up to now is        3.0 secs

     total energy              =    -309.90069223 Ry
     Harris-Foulkes estimate   =    -309.90131596 Ry
     estimated scf accuracy    <       0.00038544 Ry

     iteration #  4     ecut=    25.00 Ry     beta= 0.10
     Davidson diagonalization with overlap
     ethr =  1.61E-06,  avg # of iterations =  5.7

     total cpu time spent up to now is        3.6 secs

     total energy              =    -309.89805992 Ry
     Harris-Foulkes estimate   =    -309.90075712 Ry
     estimated scf accuracy    <       0.00027713 Ry

     iteration #  5     ecut=    25.00 Ry     beta= 0.10
     Davidson diagonalization with overlap
     ethr =  1.15E-06,  avg # of iterations =  2.7

     total cpu time spent up to now is        4.2 secs

     total energy              =    -309.89817588 Ry
     Harris-Foulkes estimate   =    -309.89817473 Ry
     estimated scf accuracy    <       0.00000965 Ry

     iteration #  6     ecut=    25.00 Ry     beta= 0.10
     Davidson diagonalization with overlap
     ethr =  4.02E-08,  avg # of iterations =  3.2

     total cpu time spent up to now is        4.8 secs

     End of self-consistent calculation

          k = 0.1667 0.1667 0.1667 (   943 PWs)   bands (ev):

     1.6659   7.3806   7.3856   7.3940  12.3963  12.4066  12.4259  13.0847
    13.0889  13.0894  16.8975  16.8977  16.8986  17.6115  19.1330  19.1341

          k = 0.1667 0.1667-0.5000 (   926 PWs)   bands (ev):

     3.6226   3.6338   8.9445   8.9470   9.5104   9.5124  14.1481  14.1509
    14.4292  14.4421  14.7689  14.7714  18.3249  18.3407  19.1594  19.1674

          k = 0.1667-0.5000-0.5000 (   944 PWs)   bands (ev):

     5.5280   5.5338   5.5382   5.5510  11.0164  11.0226  11.0272  11.0402
    16.0418  16.0484  16.0542  16.0689  19.7542  19.7621  19.7685  19.7825

          k =-0.5000-0.5000-0.5000 (   968 PWs)   bands (ev):

     7.2062   7.2085   7.2145   7.2225   7.6144   7.6195   7.6246   7.6269
    21.1904  21.1949  21.2804  21.2840  21.2881  21.2913  21.2947  21.2968

          k =-0.1667-0.1667 0.1667 (   943 PWs)   bands (ev):

     1.6660   7.3821   7.3860   7.3913  12.4015  12.4087  12.4240  13.0801
    13.0851  13.0924  16.8973  16.8980  16.8985  17.6129  19.1334  19.1346

          k =-0.1667 0.1667-0.1667 (   943 PWs)   bands (ev):

     1.6659   7.3843   7.3857   7.3901  12.4014  12.4092  12.4174  13.0813
    13.0859  13.0965  16.8970  16.8982  16.8986  17.6111  19.1329  19.1342

          k = 0.1667-0.1667-0.1667 (   943 PWs)   bands (ev):

     1.6659   7.3816   7.3855   7.3933  12.3969  12.4050  12.4243  13.0841
    13.0890  13.0925  16.8974  16.8978  16.8984  17.6108  19.1337  19.1343

          k =-0.1667 0.1667 0.5000 (   926 PWs)   bands (ev):

     3.6226   3.6337   8.9409   8.9537   9.5054   9.5146  14.1450  14.1583
    14.4291  14.4409  14.7628  14.7729  18.3242  18.3404  19.1620  19.1639

          k =-0.5000-0.1667 0.1667 (   926 PWs)   bands (ev):

     3.6267   3.6297   8.9451   8.9468   9.5106   9.5117  14.1487  14.1507
    14.4340  14.4377  14.7689  14.7705  18.3306  18.3349  19.1623  19.1644

          k = 0.5000-0.1667-0.1667 (   926 PWs)   bands (ev):

     3.6266   3.6296   8.9452   8.9491   9.5092   9.5111  14.1491  14.1538
    14.4333  14.4365  14.7665  14.7700  18.3303  18.3346  19.1625  19.1636

          k =-0.1667-0.5000 0.1667 (   926 PWs)   bands (ev):

     3.6229   3.6334   8.9417   8.9508   9.5076   9.5142  14.1456  14.1547
    14.4296  14.4414  14.7660  14.7729  18.3251  18.3402  19.1607  19.1660

          k =-0.1667 0.5000-0.1667 (   926 PWs)   bands (ev):

     3.6229   3.6334   8.9426   8.9511   9.5074   9.5134  14.1463  14.1555
    14.4294  14.4413  14.7647  14.7721  18.3249  18.3400  19.1602  19.1660

          k =-0.5000 0.1667 0.5000 (   944 PWs)   bands (ev):

     5.5307   5.5333   5.5414   5.5454  11.0190  11.0225  11.0309  11.0341
    16.0447  16.0488  16.0582  16.0617  19.7599  19.7635  19.7701  19.7734

          k =-0.5000 0.5000 0.1667 (   944 PWs)   bands (ev):

     5.5298   5.5338   5.5418   5.5455  11.0181  11.0230  11.0312  11.0342
    16.0435  16.0493  16.0586  16.0621  19.7557  19.7631  19.7716  19.7767

     the Fermi energy is    17.0608 ev

!    total energy              =    -309.89817996 Ry
     Harris-Foulkes estimate   =    -309.89817975 Ry
     estimated scf accuracy    <       0.00000081 Ry

     total all-electron energy =     -3879.040424 Ry

     The total energy is the sum of the following terms:

     one-electron contribution =      44.83399101 Ry
     hartree contribution      =       0.13782589 Ry
     xc contribution           =     -24.74876061 Ry
     ewald contribution        =     -50.77915169 Ry
     one-center paw contrib.   =    -279.34055950 Ry
     smearing contrib. (-TS)   =      -0.00152506 Ry

     convergence has been achieved in   6 iterations

     Forces acting on atoms (cartesian axes, Ry/au):

     atom    1 type  1   force =     0.00406951    0.00004765    0.00624331
     atom    2 type  1   force =    -0.00385731    0.01652488   -0.01016792
     atom    3 type  1   force =     0.01025009    0.00369210   -0.01161017
     atom    4 type  1   force =     0.00329114   -0.01262070   -0.00107685
     atom    5 type  1   force =    -0.01117591   -0.00549204    0.00978481
     atom    6 type  1   force =    -0.01048427    0.00797756    0.00131052
     atom    7 type  1   force =     0.00271852   -0.00689628    0.01415427
     atom    8 type  1   force =     0.00518823   -0.00323317   -0.00863798

     Total force =     0.040805     Total SCF correction =     0.000256


     Computing stress (Cartesian axis) and pressure

          total   stress  (Ry/bohr**3)                   (kbar)     P= 4077.94
   0.02772179   0.00014200  -0.00006332       4078.02     20.89     -9.31
   0.00014200   0.02772090  -0.00011666         20.89   4077.88    -17.16
  -0.00006332  -0.00011666   0.02772107         -9.31    -17.16   4077.91


     Writing output data file RlLckEmHImHvsLsA.save/

     init_run     :      0.56s CPU      0.57s WALL (       1 calls)
     electrons    :      3.98s CPU      3.98s WALL (       1 calls)
     forces       :      0.10s CPU      0.10s WALL (       1 calls)
     stress       :      0.15s CPU      0.15s WALL (       1 calls)

     Called by init_run:
     wfcinit      :      0.20s CPU      0.20s WALL (       1 calls)
     potinit      :      0.23s CPU      0.24s WALL (       1 calls)
     hinit0       :      0.11s CPU      0.11s WALL (       1 calls)

     Called by electrons:
     c_bands      :      2.22s CPU      2.22s WALL (       7 calls)
     sum_band     :      0.28s CPU      0.28s WALL (       7 calls)
     v_of_rho     :      0.06s CPU      0.06s WALL (       7 calls)
     newd         :      0.06s CPU      0.06s WALL (       7 calls)
     PAW_pot      :      1.60s CPU      1.61s WALL (       7 calls)
     mix_rho      :      0.00s CPU      0.00s WALL (       7 calls)

     Called by c_bands:
     init_us_2    :      0.04s CPU      0.04s WALL (     238 calls)
     cegterg      :      2.14s CPU      2.14s WALL (      98 calls)

     Called by sum_band:
     sum_band:bec :      0.00s CPU      0.00s WALL (      98 calls)
     addusdens    :      0.03s CPU      0.03s WALL (       7 calls)

     Called by *egterg:
     h_psi        :      1.38s CPU      1.38s WALL (     435 calls)
     s_psi        :      0.25s CPU      0.25s WALL (     435 calls)
     g_psi        :      0.01s CPU      0.01s WALL (     323 calls)
     cdiaghg      :      0.17s CPU      0.17s WALL (     407 calls)

     Called by h_psi:
     h_psi:pot    :      1.37s CPU      1.37s WALL (     435 calls)
     h_psi:calbec :      0.32s CPU      0.32s WALL (     435 calls)
     vloc_psi     :      0.80s CPU      0.80s WALL (     435 calls)
     add_vuspsi   :      0.25s CPU      0.25s WALL (     435 calls)

     General routines
     calbec       :      0.48s CPU      0.48s WALL (     603 calls)
     fft          :      0.03s CPU      0.03s WALL (     115 calls)
     ffts         :      0.00s CPU      0.00s WALL (      14 calls)
     fftw         :      0.82s CPU      0.82s WALL (   11712 calls)
     interpolate  :      0.00s CPU      0.00s WALL (       7 calls)

     Parallel routines

     PWSCF        :      5.08s CPU      5.10s WALL


   This run was terminated on:   4:15:19  19Mar2020            

=------------------------------------------------------------------------------=
   JOB DONE.
=------------------------------------------------------------------------------=
