
     Program PWSCF v.6.4.1 starts on 19Mar2020 at  4:15:20 

     This program is part of the open-source Quantum ESPRESSO suite
     for quantum simulation of materials; please cite
         "P. Giannozzi et al., J. Phys.:Condens. Matter 21 395502 (2009);
         "P. Giannozzi et al., J. Phys.:Condens. Matter 29 465901 (2017);
          URL http://www.quantum-espresso.org", 
     in publications or presentations arising from this work. More details at
     http://www.quantum-espresso.org/quote

     Parallel version (MPI), running on     1 processors

     MPI processes distributed on     1 nodes
     Reading input from wd/configs/1/config_0002.in
Warning: card &IONS ignored
Warning: card ION_DYNAMICS = 'BFGS', ignored
Warning: card / ignored
Warning: card &CELL ignored
Warning: card CELL_DYNAMICS = 'BFGS', ignored
Warning: card CELL_FACTOR = 2.0, ignored
Warning: card PRESS = 0.0, ignored
Warning: card / ignored

     Current dimensions of program PWSCF are:
     Max number of different atomic species (ntypx) = 10
     Max number of k-points (npk) =  40000
     Max angular momentum in pseudopotentials (lmaxx) =  3
               file Al.pbe-nl-kjpaw_psl.1.0.0.UPF: wavefunction(s)  3S 3P renormalized

     Subspace diagonalization in iterative solution of the eigenvalue problem:
     a serial algorithm will be used


     G-vector sticks info
     --------------------
     sticks:   dense  smooth     PW     G-vecs:    dense   smooth      PW
     Sum         593     465    145                10635     7497    1365



     bravais-lattice index     =            0
     lattice parameter (alat)  =       7.6336  a.u.
     unit-cell volume          =     444.8310 (a.u.)^3
     number of atoms/cell      =            8
     number of atomic types    =            1
     number of electrons       =        24.00
     number of Kohn-Sham states=           16
     kinetic-energy cutoff     =      25.0000  Ry
     charge density cutoff     =     126.0000  Ry
     convergence threshold     =      1.0E-06
     mixing beta               =       0.1000
     number of iterations used =           10  TF        mixing
     Exchange-correlation      = SLA PW PBX PBC ( 1  4  3  4 0 0)

     celldm(1)=   7.633640  celldm(2)=   0.000000  celldm(3)=   0.000000
     celldm(4)=   0.000000  celldm(5)=   0.000000  celldm(6)=   0.000000

     crystal axes: (cart. coord. in units of alat)
               a(1) = (   1.000000   0.000000   0.000000 )  
               a(2) = (   0.000000   1.000000   0.000000 )  
               a(3) = (   0.000000   0.000000   1.000000 )  

     reciprocal axes: (cart. coord. in units 2 pi/alat)
               b(1) = (  1.000000  0.000000  0.000000 )  
               b(2) = (  0.000000  1.000000  0.000000 )  
               b(3) = (  0.000000  0.000000  1.000000 )  


     PseudoPot. # 1 for Al read from file:
     /opt/pp/Al.pbe-nl-kjpaw_psl.1.0.0.UPF
     MD5 check sum: 1b67f78b73fe58c7924490f171ce8a1e
     Pseudo is Projector augmented-wave + core cor, Zval =  3.0
     Generated using "atomic" code by A. Dal Corso v.6.3
     Shape of augmentation charge: PSQ
     Using radial grid of 1135 points,  4 beta functions with: 
                l(1) =   0
                l(2) =   0
                l(3) =   1
                l(4) =   1
     Q(r) pseudized with 0 coefficients 


     atomic species   valence    mass     pseudopotential
        Al             3.00    26.98200     Al( 1.00)

     No symmetry found



   Cartesian axes

     site n.     atom                  positions (alat units)
         1           Al  tau(   1) = (  -0.0014407  -0.0012719  -0.0010378  )
         2           Al  tau(   2) = (   0.4990085   0.4979299  -0.0010286  )
         3           Al  tau(   3) = (   0.4983185  -0.0011880   0.4998723  )
         4           Al  tau(   4) = (  -0.0013900   0.4995651   0.4994250  )
         5           Al  tau(   5) = (   0.2497135   0.2496987   0.2482138  )
         6           Al  tau(   6) = (   0.7491678   0.7480202   0.2487044  )
         7           Al  tau(   7) = (   0.2488012   0.7493057   0.7482420  )
         8           Al  tau(   8) = (   0.7489097   0.2491447   0.7495307  )

     number of k points=    14  Marzari-Vanderbilt smearing, width (Ry)=  0.0200
                       cart. coord. in units 2pi/alat
        k(    1) = (   0.1666667   0.1666667   0.1666667), wk =   0.1481481
        k(    2) = (   0.1666667   0.1666667  -0.5000000), wk =   0.1481481
        k(    3) = (   0.1666667  -0.5000000  -0.5000000), wk =   0.1481481
        k(    4) = (  -0.5000000  -0.5000000  -0.5000000), wk =   0.0740741
        k(    5) = (  -0.1666667  -0.1666667   0.1666667), wk =   0.1481481
        k(    6) = (  -0.1666667   0.1666667  -0.1666667), wk =   0.1481481
        k(    7) = (   0.1666667  -0.1666667  -0.1666667), wk =   0.1481481
        k(    8) = (  -0.1666667   0.1666667   0.5000000), wk =   0.1481481
        k(    9) = (  -0.5000000  -0.1666667   0.1666667), wk =   0.1481481
        k(   10) = (   0.5000000  -0.1666667  -0.1666667), wk =   0.1481481
        k(   11) = (  -0.1666667  -0.5000000   0.1666667), wk =   0.1481481
        k(   12) = (  -0.1666667   0.5000000  -0.1666667), wk =   0.1481481
        k(   13) = (  -0.5000000   0.1666667   0.5000000), wk =   0.1481481
        k(   14) = (  -0.5000000   0.5000000   0.1666667), wk =   0.1481481

     Dense  grid:    10635 G-vectors     FFT dimensions: (  27,  27,  27)

     Smooth grid:     7497 G-vectors     FFT dimensions: (  25,  25,  25)

     Estimated max dynamical RAM per process >      21.70 MB

     Initial potential from superposition of free atoms

     starting charge   23.98168, renormalised to   24.00000
     Starting wfcs are   32 randomized atomic wfcs
     Checking if some PAW data can be deallocated... 

     total cpu time spent up to now is        0.9 secs

     Self-consistent Calculation

     iteration #  1     ecut=    25.00 Ry     beta= 0.10
     Davidson diagonalization with overlap
     ethr =  1.00E-02,  avg # of iterations =  4.2

     Threshold (ethr) on eigenvalues was too large:
     Diagonalizing with lowered threshold

     Davidson diagonalization with overlap
     ethr =  1.16E-04,  avg # of iterations =  4.1

     total cpu time spent up to now is        1.9 secs

     total energy              =    -309.91887577 Ry
     Harris-Foulkes estimate   =    -309.93888879 Ry
     estimated scf accuracy    <       0.02590943 Ry

     iteration #  2     ecut=    25.00 Ry     beta= 0.10
     Davidson diagonalization with overlap
     ethr =  1.08E-04,  avg # of iterations =  1.0

     total cpu time spent up to now is        2.4 secs

     total energy              =    -309.87619104 Ry
     Harris-Foulkes estimate   =    -309.91904264 Ry
     estimated scf accuracy    <       0.02203651 Ry

     iteration #  3     ecut=    25.00 Ry     beta= 0.10
     Davidson diagonalization with overlap
     ethr =  9.18E-05,  avg # of iterations =  2.0

     total cpu time spent up to now is        3.0 secs

     total energy              =    -309.87999023 Ry
     Harris-Foulkes estimate   =    -309.88062910 Ry
     estimated scf accuracy    <       0.00038963 Ry

     iteration #  4     ecut=    25.00 Ry     beta= 0.10
     Davidson diagonalization with overlap
     ethr =  1.62E-06,  avg # of iterations =  5.8

     total cpu time spent up to now is        3.6 secs

     total energy              =    -309.87733652 Ry
     Harris-Foulkes estimate   =    -309.88005526 Ry
     estimated scf accuracy    <       0.00028017 Ry

     iteration #  5     ecut=    25.00 Ry     beta= 0.10
     Davidson diagonalization with overlap
     ethr =  1.17E-06,  avg # of iterations =  2.9

     total cpu time spent up to now is        4.2 secs

     total energy              =    -309.87745651 Ry
     Harris-Foulkes estimate   =    -309.87747014 Ry
     estimated scf accuracy    <       0.00000712 Ry

     iteration #  6     ecut=    25.00 Ry     beta= 0.10
     Davidson diagonalization with overlap
     ethr =  2.97E-08,  avg # of iterations =  3.2

     total cpu time spent up to now is        4.8 secs

     End of self-consistent calculation

          k = 0.1667 0.1667 0.1667 (   943 PWs)   bands (ev):

     1.6832   7.4034   7.4084   7.4167  12.4204  12.4308  12.4501  13.1172
    13.1215  13.1220  16.9313  16.9315  16.9324  17.6446  19.1666  19.1677

          k = 0.1667 0.1667-0.5000 (   926 PWs)   bands (ev):

     3.6420   3.6532   8.9655   8.9681   9.5391   9.5412  14.1748  14.1775
    14.4593  14.4722  14.8032  14.8057  18.3593  18.3751  19.1910  19.1991

          k = 0.1667-0.5000-0.5000 (   944 PWs)   bands (ev):

     5.5492   5.5550   5.5595   5.5722  11.0436  11.0498  11.0544  11.0673
    16.0730  16.0796  16.0855  16.1002  19.7887  19.7967  19.8031  19.8171

          k =-0.5000-0.5000-0.5000 (   968 PWs)   bands (ev):

     7.2260   7.2284   7.2344   7.2423   7.6415   7.6466   7.6517   7.6540
    21.2196  21.2240  21.3220  21.3256  21.3297  21.3329  21.3363  21.3382

          k =-0.1667-0.1667 0.1667 (   943 PWs)   bands (ev):

     1.6833   7.4049   7.4088   7.4141  12.4256  12.4329  12.4482  13.1126
    13.1177  13.1250  16.9311  16.9318  16.9323  17.6460  19.1670  19.1682

          k =-0.1667 0.1667-0.1667 (   943 PWs)   bands (ev):

     1.6832   7.4071   7.4085   7.4129  12.4255  12.4334  12.4416  13.1139
    13.1185  13.1292  16.9308  16.9320  16.9324  17.6442  19.1665  19.1677

          k = 0.1667-0.1667-0.1667 (   943 PWs)   bands (ev):

     1.6832   7.4044   7.4083   7.4161  12.4211  12.4291  12.4484  13.1166
    13.1216  13.1251  16.9312  16.9316  16.9322  17.6439  19.1673  19.1679

          k =-0.1667 0.1667 0.5000 (   926 PWs)   bands (ev):

     3.6420   3.6531   8.9620   8.9748   9.5341   9.5433  14.1717  14.1850
    14.4592  14.4710  14.7971  14.8071  18.3587  18.3748  19.1936  19.1956

          k =-0.5000-0.1667 0.1667 (   926 PWs)   bands (ev):

     3.6461   3.6491   8.9661   8.9678   9.5394   9.5405  14.1754  14.1774
    14.4641  14.4678  14.8032  14.8048  18.3649  18.3693  19.1940  19.1960

          k = 0.5000-0.1667-0.1667 (   926 PWs)   bands (ev):

     3.6461   3.6490   8.9663   8.9701   9.5380   9.5398  14.1758  14.1806
    14.4634  14.4666  14.8007  14.8042  18.3646  18.3690  19.1941  19.1952

          k =-0.1667-0.5000 0.1667 (   926 PWs)   bands (ev):

     3.6423   3.6528   8.9627   8.9718   9.5364   9.5430  14.1722  14.1814
    14.4597  14.4715  14.8003  14.8071  18.3595  18.3745  19.1923  19.1976

          k =-0.1667 0.5000-0.1667 (   926 PWs)   bands (ev):

     3.6423   3.6528   8.9637   8.9721   9.5362   9.5421  14.1730  14.1822
    14.4595  14.4714  14.7990  14.8064  18.3593  18.3744  19.1919  19.1976

          k =-0.5000 0.1667 0.5000 (   944 PWs)   bands (ev):

     5.5519   5.5546   5.5627   5.5667  11.0462  11.0497  11.0580  11.0612
    16.0760  16.0801  16.0894  16.0930  19.7945  19.7981  19.8047  19.8080

          k =-0.5000 0.5000 0.1667 (   944 PWs)   bands (ev):

     5.5510   5.5550   5.5630   5.5668  11.0453  11.0502  11.0583  11.0613
    16.0747  16.0805  16.0898  16.0933  19.7902  19.7977  19.8061  19.8113

     the Fermi energy is    17.0946 ev

!    total energy              =    -309.87746035 Ry
     Harris-Foulkes estimate   =    -309.87746014 Ry
     estimated scf accuracy    <       0.00000085 Ry

     total all-electron energy =     -3879.019705 Ry

     The total energy is the sum of the following terms:

     one-electron contribution =      44.89737858 Ry
     hartree contribution      =       0.13719933 Ry
     xc contribution           =     -24.75853777 Ry
     ewald contribution        =     -50.80751573 Ry
     one-center paw contrib.   =    -279.34445932 Ry
     smearing contrib. (-TS)   =      -0.00152543 Ry

     convergence has been achieved in   6 iterations

     Forces acting on atoms (cartesian axes, Ry/au):

     atom    1 type  1   force =     0.00407451    0.00004468    0.00626132
     atom    2 type  1   force =    -0.00386776    0.01655426   -0.01018492
     atom    3 type  1   force =     0.01026930    0.00369936   -0.01163179
     atom    4 type  1   force =     0.00329374   -0.01264565   -0.00107719
     atom    5 type  1   force =    -0.01119658   -0.00549980    0.00980222
     atom    6 type  1   force =    -0.01050205    0.00799367    0.00131203
     atom    7 type  1   force =     0.00272410   -0.00690745    0.01417675
     atom    8 type  1   force =     0.00520474   -0.00323908   -0.00865842

     Total force =     0.040880     Total SCF correction =     0.000261


     Computing stress (Cartesian axis) and pressure

          total   stress  (Ry/bohr**3)                   (kbar)     P= 4094.82
   0.02783655   0.00014249  -0.00006354       4094.90     20.96     -9.35
   0.00014249   0.02783567  -0.00011704         20.96   4094.77    -17.22
  -0.00006354  -0.00011704   0.02783584         -9.35    -17.22   4094.79


     Writing output data file ApLlHtDAZiCfvjHs.save/

     init_run     :      0.56s CPU      0.57s WALL (       1 calls)
     electrons    :      3.97s CPU      3.98s WALL (       1 calls)
     forces       :      0.10s CPU      0.10s WALL (       1 calls)
     stress       :      0.15s CPU      0.15s WALL (       1 calls)

     Called by init_run:
     wfcinit      :      0.20s CPU      0.21s WALL (       1 calls)
     potinit      :      0.24s CPU      0.24s WALL (       1 calls)
     hinit0       :      0.11s CPU      0.11s WALL (       1 calls)

     Called by electrons:
     c_bands      :      2.22s CPU      2.22s WALL (       7 calls)
     sum_band     :      0.28s CPU      0.28s WALL (       7 calls)
     v_of_rho     :      0.06s CPU      0.06s WALL (       7 calls)
     newd         :      0.05s CPU      0.06s WALL (       7 calls)
     PAW_pot      :      1.60s CPU      1.60s WALL (       7 calls)
     mix_rho      :      0.00s CPU      0.00s WALL (       7 calls)

     Called by c_bands:
     init_us_2    :      0.04s CPU      0.04s WALL (     238 calls)
     cegterg      :      2.14s CPU      2.15s WALL (      98 calls)

     Called by sum_band:
     sum_band:bec :      0.00s CPU      0.00s WALL (      98 calls)
     addusdens    :      0.03s CPU      0.03s WALL (       7 calls)

     Called by *egterg:
     h_psi        :      1.38s CPU      1.38s WALL (     437 calls)
     s_psi        :      0.25s CPU      0.25s WALL (     437 calls)
     g_psi        :      0.01s CPU      0.01s WALL (     325 calls)
     cdiaghg      :      0.17s CPU      0.17s WALL (     409 calls)

     Called by h_psi:
     h_psi:pot    :      1.37s CPU      1.38s WALL (     437 calls)
     h_psi:calbec :      0.31s CPU      0.31s WALL (     437 calls)
     vloc_psi     :      0.81s CPU      0.81s WALL (     437 calls)
     add_vuspsi   :      0.25s CPU      0.25s WALL (     437 calls)

     General routines
     calbec       :      0.48s CPU      0.48s WALL (     605 calls)
     fft          :      0.03s CPU      0.03s WALL (     115 calls)
     ffts         :      0.00s CPU      0.00s WALL (      14 calls)
     fftw         :      0.82s CPU      0.83s WALL (   11756 calls)
     interpolate  :      0.00s CPU      0.00s WALL (       7 calls)

     Parallel routines

     PWSCF        :      5.07s CPU      5.09s WALL


   This run was terminated on:   4:15:26  19Mar2020            

=------------------------------------------------------------------------------=
   JOB DONE.
=------------------------------------------------------------------------------=
