
     Program PWSCF v.6.4.1 starts on 19Mar2020 at  4:15:26 

     This program is part of the open-source Quantum ESPRESSO suite
     for quantum simulation of materials; please cite
         "P. Giannozzi et al., J. Phys.:Condens. Matter 21 395502 (2009);
         "P. Giannozzi et al., J. Phys.:Condens. Matter 29 465901 (2017);
          URL http://www.quantum-espresso.org", 
     in publications or presentations arising from this work. More details at
     http://www.quantum-espresso.org/quote

     Parallel version (MPI), running on     1 processors

     MPI processes distributed on     1 nodes
     Reading input from wd/configs/1/config_0003.in
Warning: card &IONS ignored
Warning: card ION_DYNAMICS = 'BFGS', ignored
Warning: card / ignored
Warning: card &CELL ignored
Warning: card CELL_DYNAMICS = 'BFGS', ignored
Warning: card CELL_FACTOR = 2.0, ignored
Warning: card PRESS = 0.0, ignored
Warning: card / ignored

     Current dimensions of program PWSCF are:
     Max number of different atomic species (ntypx) = 10
     Max number of k-points (npk) =  40000
     Max angular momentum in pseudopotentials (lmaxx) =  3
               file Al.pbe-nl-kjpaw_psl.1.0.0.UPF: wavefunction(s)  3S 3P renormalized

     Subspace diagonalization in iterative solution of the eigenvalue problem:
     a serial algorithm will be used


     G-vector sticks info
     --------------------
     sticks:   dense  smooth     PW     G-vecs:    dense   smooth      PW
     Sum         593     465    145                10779     7497    1365



     bravais-lattice index     =            0
     lattice parameter (alat)  =       7.6380  a.u.
     unit-cell volume          =     445.5948 (a.u.)^3
     number of atoms/cell      =            8
     number of atomic types    =            1
     number of electrons       =        24.00
     number of Kohn-Sham states=           16
     kinetic-energy cutoff     =      25.0000  Ry
     charge density cutoff     =     126.0000  Ry
     convergence threshold     =      1.0E-06
     mixing beta               =       0.1000
     number of iterations used =           10  TF        mixing
     Exchange-correlation      = SLA PW PBX PBC ( 1  4  3  4 0 0)

     celldm(1)=   7.638006  celldm(2)=   0.000000  celldm(3)=   0.000000
     celldm(4)=   0.000000  celldm(5)=   0.000000  celldm(6)=   0.000000

     crystal axes: (cart. coord. in units of alat)
               a(1) = (   1.000000   0.000000   0.000000 )  
               a(2) = (   0.000000   1.000000   0.000000 )  
               a(3) = (   0.000000   0.000000   1.000000 )  

     reciprocal axes: (cart. coord. in units 2 pi/alat)
               b(1) = (  1.000000  0.000000  0.000000 )  
               b(2) = (  0.000000  1.000000  0.000000 )  
               b(3) = (  0.000000  0.000000  1.000000 )  


     PseudoPot. # 1 for Al read from file:
     /opt/pp/Al.pbe-nl-kjpaw_psl.1.0.0.UPF
     MD5 check sum: 1b67f78b73fe58c7924490f171ce8a1e
     Pseudo is Projector augmented-wave + core cor, Zval =  3.0
     Generated using "atomic" code by A. Dal Corso v.6.3
     Shape of augmentation charge: PSQ
     Using radial grid of 1135 points,  4 beta functions with: 
                l(1) =   0
                l(2) =   0
                l(3) =   1
                l(4) =   1
     Q(r) pseudized with 0 coefficients 


     atomic species   valence    mass     pseudopotential
        Al             3.00    26.98200     Al( 1.00)

     No symmetry found



   Cartesian axes

     site n.     atom                  positions (alat units)
         1           Al  tau(   1) = (  -0.0014399  -0.0012712  -0.0010372  )
         2           Al  tau(   2) = (   0.4990091   0.4979311  -0.0010280  )
         3           Al  tau(   3) = (   0.4983194  -0.0011873   0.4998723  )
         4           Al  tau(   4) = (  -0.0013892   0.4995653   0.4994253  )
         5           Al  tau(   5) = (   0.2497137   0.2496989   0.2482149  )
         6           Al  tau(   6) = (   0.7491683   0.7480213   0.2487051  )
         7           Al  tau(   7) = (   0.2488019   0.7493061   0.7482430  )
         8           Al  tau(   8) = (   0.7489104   0.2491452   0.7495309  )

     number of k points=    14  Marzari-Vanderbilt smearing, width (Ry)=  0.0200
                       cart. coord. in units 2pi/alat
        k(    1) = (   0.1666667   0.1666667   0.1666667), wk =   0.1481481
        k(    2) = (   0.1666667   0.1666667  -0.5000000), wk =   0.1481481
        k(    3) = (   0.1666667  -0.5000000  -0.5000000), wk =   0.1481481
        k(    4) = (  -0.5000000  -0.5000000  -0.5000000), wk =   0.0740741
        k(    5) = (  -0.1666667  -0.1666667   0.1666667), wk =   0.1481481
        k(    6) = (  -0.1666667   0.1666667  -0.1666667), wk =   0.1481481
        k(    7) = (   0.1666667  -0.1666667  -0.1666667), wk =   0.1481481
        k(    8) = (  -0.1666667   0.1666667   0.5000000), wk =   0.1481481
        k(    9) = (  -0.5000000  -0.1666667   0.1666667), wk =   0.1481481
        k(   10) = (   0.5000000  -0.1666667  -0.1666667), wk =   0.1481481
        k(   11) = (  -0.1666667  -0.5000000   0.1666667), wk =   0.1481481
        k(   12) = (  -0.1666667   0.5000000  -0.1666667), wk =   0.1481481
        k(   13) = (  -0.5000000   0.1666667   0.5000000), wk =   0.1481481
        k(   14) = (  -0.5000000   0.5000000   0.1666667), wk =   0.1481481

     Dense  grid:    10779 G-vectors     FFT dimensions: (  27,  27,  27)

     Smooth grid:     7497 G-vectors     FFT dimensions: (  25,  25,  25)

     Estimated max dynamical RAM per process >      21.92 MB

     Initial potential from superposition of free atoms

     starting charge   23.98168, renormalised to   24.00000
     Starting wfcs are   32 randomized atomic wfcs
     Checking if some PAW data can be deallocated... 

     total cpu time spent up to now is        0.9 secs

     Self-consistent Calculation

     iteration #  1     ecut=    25.00 Ry     beta= 0.10
     Davidson diagonalization with overlap
     ethr =  1.00E-02,  avg # of iterations =  4.2

     Threshold (ethr) on eigenvalues was too large:
     Diagonalizing with lowered threshold

     Davidson diagonalization with overlap
     ethr =  1.16E-04,  avg # of iterations =  4.2

     total cpu time spent up to now is        1.9 secs

     total energy              =    -309.93989574 Ry
     Harris-Foulkes estimate   =    -309.95982041 Ry
     estimated scf accuracy    <       0.02584675 Ry

     iteration #  2     ecut=    25.00 Ry     beta= 0.10
     Davidson diagonalization with overlap
     ethr =  1.08E-04,  avg # of iterations =  1.0

     total cpu time spent up to now is        2.4 secs

     total energy              =    -309.89739494 Ry
     Harris-Foulkes estimate   =    -309.94005995 Ry
     estimated scf accuracy    <       0.02197869 Ry

     iteration #  3     ecut=    25.00 Ry     beta= 0.10
     Davidson diagonalization with overlap
     ethr =  9.16E-05,  avg # of iterations =  2.0

     total cpu time spent up to now is        3.0 secs

     total energy              =    -309.90118788 Ry
     Harris-Foulkes estimate   =    -309.90181115 Ry
     estimated scf accuracy    <       0.00038537 Ry

     iteration #  4     ecut=    25.00 Ry     beta= 0.10
     Davidson diagonalization with overlap
     ethr =  1.61E-06,  avg # of iterations =  5.7

     total cpu time spent up to now is        3.7 secs

     total energy              =    -309.89855602 Ry
     Harris-Foulkes estimate   =    -309.90125277 Ry
     estimated scf accuracy    <       0.00027708 Ry

     iteration #  5     ecut=    25.00 Ry     beta= 0.10
     Davidson diagonalization with overlap
     ethr =  1.15E-06,  avg # of iterations =  2.7

     total cpu time spent up to now is        4.2 secs

     total energy              =    -309.89867191 Ry
     Harris-Foulkes estimate   =    -309.89867075 Ry
     estimated scf accuracy    <       0.00000966 Ry

     iteration #  6     ecut=    25.00 Ry     beta= 0.10
     Davidson diagonalization with overlap
     ethr =  4.02E-08,  avg # of iterations =  3.2

     total cpu time spent up to now is        4.9 secs

     End of self-consistent calculation

          k = 0.1667 0.1667 0.1667 (   943 PWs)   bands (ev):

     1.6655   7.3800   7.3851   7.3934  12.3957  12.4060  12.4253  13.0839
    13.0882  13.0886  16.8967  16.8969  16.8978  17.6107  19.1321  19.1333

          k = 0.1667 0.1667-0.5000 (   926 PWs)   bands (ev):

     3.6221   3.6333   8.9440   8.9465   9.5097   9.5117  14.1475  14.1502
    14.4285  14.4414  14.7681  14.7706  18.3240  18.3399  19.1587  19.1667

          k = 0.1667-0.5000-0.5000 (   944 PWs)   bands (ev):

     5.5275   5.5332   5.5377   5.5504  11.0158  11.0220  11.0266  11.0395
    16.0410  16.0476  16.0535  16.0682  19.7533  19.7613  19.7677  19.7817

          k =-0.5000-0.5000-0.5000 (   968 PWs)   bands (ev):

     7.2057   7.2081   7.2141   7.2220   7.6137   7.6188   7.6239   7.6262
    21.1897  21.1942  21.2794  21.2830  21.2871  21.2903  21.2937  21.2958

          k =-0.1667-0.1667 0.1667 (   943 PWs)   bands (ev):

     1.6656   7.3816   7.3855   7.3907  12.4009  12.4082  12.4234  13.0793
    13.0843  13.0916  16.8965  16.8972  16.8977  17.6121  19.1326  19.1338

          k =-0.1667 0.1667-0.1667 (   943 PWs)   bands (ev):

     1.6655   7.3838   7.3852   7.3896  12.4008  12.4086  12.4168  13.0805
    13.0851  13.0957  16.8962  16.8974  16.8978  17.6104  19.1321  19.1333

          k = 0.1667-0.1667-0.1667 (   943 PWs)   bands (ev):

     1.6654   7.3811   7.3850   7.3928  12.3963  12.4044  12.4237  13.0833
    13.0883  13.0917  16.8966  16.8970  16.8976  17.6100  19.1329  19.1335

          k =-0.1667 0.1667 0.5000 (   926 PWs)   bands (ev):

     3.6221   3.6332   8.9404   8.9532   9.5047   9.5139  14.1443  14.1576
    14.4284  14.4402  14.7620  14.7721  18.3234  18.3395  19.1612  19.1631

          k =-0.5000-0.1667 0.1667 (   926 PWs)   bands (ev):

     3.6262   3.6292   8.9446   8.9463   9.5100   9.5110  14.1481  14.1501
    14.4333  14.4370  14.7681  14.7697  18.3297  18.3340  19.1616  19.1636

          k = 0.5000-0.1667-0.1667 (   926 PWs)   bands (ev):

     3.6262   3.6291   8.9447   8.9486   9.5085   9.5104  14.1484  14.1532
    14.4326  14.4358  14.7656  14.7691  18.3294  18.3337  19.1617  19.1628

          k =-0.1667-0.5000 0.1667 (   926 PWs)   bands (ev):

     3.6225   3.6329   8.9412   8.9503   9.5069   9.5136  14.1449  14.1541
    14.4289  14.4407  14.7652  14.7720  18.3243  18.3393  19.1599  19.1652

          k =-0.1667 0.5000-0.1667 (   926 PWs)   bands (ev):

     3.6224   3.6329   8.9421   8.9506   9.5067   9.5127  14.1457  14.1548
    14.4287  14.4405  14.7639  14.7713  18.3241  18.3392  19.1594  19.1652

          k =-0.5000 0.1667 0.5000 (   944 PWs)   bands (ev):

     5.5301   5.5328   5.5409   5.5449  11.0184  11.0219  11.0302  11.0334
    16.0440  16.0481  16.0574  16.0610  19.7591  19.7627  19.7693  19.7726

          k =-0.5000 0.5000 0.1667 (   944 PWs)   bands (ev):

     5.5293   5.5333   5.5413   5.5450  11.0175  11.0224  11.0305  11.0335
    16.0427  16.0485  16.0578  16.0613  19.7548  19.7623  19.7707  19.7759

     the Fermi energy is    17.0600 ev

!    total energy              =    -309.89867599 Ry
     Harris-Foulkes estimate   =    -309.89867578 Ry
     estimated scf accuracy    <       0.00000081 Ry

     total all-electron energy =     -3879.040920 Ry

     The total energy is the sum of the following terms:

     one-electron contribution =      44.83247207 Ry
     hartree contribution      =       0.13784082 Ry
     xc contribution           =     -24.74852608 Ry
     ewald contribution        =     -50.77847198 Ry
     one-center paw contrib.   =    -279.34046576 Ry
     smearing contrib. (-TS)   =      -0.00152506 Ry

     convergence has been achieved in   6 iterations

     Forces acting on atoms (cartesian axes, Ry/au):

     atom    1 type  1   force =     0.00406939    0.00004769    0.00624285
     atom    2 type  1   force =    -0.00385708    0.01652414   -0.01016745
     atom    3 type  1   force =     0.01024966    0.00369194   -0.01160968
     atom    4 type  1   force =     0.00329105   -0.01262008   -0.00107686
     atom    5 type  1   force =    -0.01117546   -0.00549186    0.00978444
     atom    6 type  1   force =    -0.01048378    0.00797720    0.00131052
     atom    7 type  1   force =     0.00271832   -0.00689602    0.01415369
     atom    8 type  1   force =     0.00518790   -0.00323302   -0.00863751

     Total force =     0.040803     Total SCF correction =     0.000256


     Computing stress (Cartesian axis) and pressure

          total   stress  (Ry/bohr**3)                   (kbar)     P= 4077.53
   0.02771904   0.00014198  -0.00006331       4077.61     20.89     -9.31
   0.00014198   0.02771815  -0.00011666         20.89   4077.48    -17.16
  -0.00006331  -0.00011666   0.02771832         -9.31    -17.16   4077.51


     Writing output data file mchOsKZIgoSmioml.save/

     init_run     :      0.57s CPU      0.57s WALL (       1 calls)
     electrons    :      4.00s CPU      4.01s WALL (       1 calls)
     forces       :      0.10s CPU      0.10s WALL (       1 calls)
     stress       :      0.15s CPU      0.15s WALL (       1 calls)

     Called by init_run:
     wfcinit      :      0.20s CPU      0.21s WALL (       1 calls)
     potinit      :      0.25s CPU      0.25s WALL (       1 calls)
     hinit0       :      0.11s CPU      0.11s WALL (       1 calls)

     Called by electrons:
     c_bands      :      2.23s CPU      2.23s WALL (       7 calls)
     sum_band     :      0.28s CPU      0.28s WALL (       7 calls)
     v_of_rho     :      0.06s CPU      0.06s WALL (       7 calls)
     newd         :      0.06s CPU      0.06s WALL (       7 calls)
     PAW_pot      :      1.62s CPU      1.62s WALL (       7 calls)
     mix_rho      :      0.00s CPU      0.00s WALL (       7 calls)

     Called by c_bands:
     init_us_2    :      0.04s CPU      0.04s WALL (     238 calls)
     cegterg      :      2.15s CPU      2.15s WALL (      98 calls)

     Called by sum_band:
     sum_band:bec :      0.00s CPU      0.00s WALL (      98 calls)
     addusdens    :      0.03s CPU      0.03s WALL (       7 calls)

     Called by *egterg:
     h_psi        :      1.37s CPU      1.38s WALL (     435 calls)
     s_psi        :      0.25s CPU      0.25s WALL (     435 calls)
     g_psi        :      0.01s CPU      0.01s WALL (     323 calls)
     cdiaghg      :      0.17s CPU      0.17s WALL (     407 calls)

     Called by h_psi:
     h_psi:pot    :      1.37s CPU      1.38s WALL (     435 calls)
     h_psi:calbec :      0.32s CPU      0.32s WALL (     435 calls)
     vloc_psi     :      0.80s CPU      0.81s WALL (     435 calls)
     add_vuspsi   :      0.25s CPU      0.25s WALL (     435 calls)

     General routines
     calbec       :      0.48s CPU      0.48s WALL (     603 calls)
     fft          :      0.03s CPU      0.03s WALL (     115 calls)
     ffts         :      0.00s CPU      0.00s WALL (      14 calls)
     fftw         :      0.82s CPU      0.82s WALL (   11712 calls)
     interpolate  :      0.00s CPU      0.00s WALL (       7 calls)

     Parallel routines

     PWSCF        :      5.11s CPU      5.13s WALL


   This run was terminated on:   4:15:31  19Mar2020            

=------------------------------------------------------------------------------=
   JOB DONE.
=------------------------------------------------------------------------------=
